refund: UserID = kowa067
refund: SLURM Job ID = 3029836
refund: Number of nodes          = 4
refund: Number of cores per node = 8
refund: Number of cores          = 8
refund: Amount of time requested = 120
refund: Directory = /home/kowa067/citrate/lukasz/2w/optimization-low-0/1a-1-2
 
Processor list
 
g[1407-1410]
 
 argument  1 = /dtemp/emslc50593/citrate/lukasz/2w/optimization-low-0/1a-1-2/././nwchem-0.nw
All connections between all procs tested: SUCCESS
 


============================== echo of input deck ==============================
#Created on Wed Jan  2 13:16:04 PST 2019 by kowa067

echo

memory total 2000 Mb
start mol

permanent_dir ./perm


geometry noautoz noautosym
 load 1a-1-2.xyz
end

basis
*  library 6-31G*
end

charge -2

dft
 mult 1
 XC b3lyp
 iterations 500
end

driver
xyz mol
maxiter 100
end

task dft optimize

================================================================================


                                         
                                         
 
 
              Northwest Computational Chemistry Package (NWChem) 6.8
              ------------------------------------------------------
 
 
                    Environmental Molecular Sciences Laboratory
                       Pacific Northwest National Laboratory
                                Richland, WA 99352
 
                              Copyright (c) 1994-2017
                       Pacific Northwest National Laboratory
                            Battelle Memorial Institute
 
             NWChem is an open-source computational chemistry package
                        distributed under the terms of the
                      Educational Community License (ECL) 2.0
             A copy of the license is included with this distribution
                              in the LICENSE.TXT file
 
                                  ACKNOWLEDGMENT
                                  --------------

            This software and its documentation were developed at the
            EMSL at Pacific Northwest National Laboratory, a multiprogram
            national laboratory, operated for the U.S. Department of Energy
            by Battelle under Contract Number DE-AC05-76RL01830. Support
            for this work was provided by the Department of Energy Office
            of Biological and Environmental Research, Office of Basic
            Energy Sciences, and the Office of Advanced Scientific Computing.


           Job information
           ---------------

    hostname        = g1407
    program         = /dtemp/emslc50593/citrate/bin/nwchem
    date            = Wed Jan  2 13:17:04 2019

    compiled        = Mon_Nov_26_15:10:28_2018
    source          = /home/marat/codes/nwchem-6.8
    nwchem branch   = 6.8
    nwchem revision = v6.8-47-gdf6c956
    ga revision     = ga-5.6.3
    use scalapack   = T
    input           = /dtemp/emslc50593/citrate/lukasz/2w/optimization-low-0/1a-1-2/././nwchem-0.nw
    prefix          = mol.
    data base       = ./perm/mol.db
    status          = startup
    nproc           =       32
    time left       =   7190s



           Memory information
           ------------------

    heap     =   65536000 doubles =    500.0 Mbytes
    stack    =   65535997 doubles =    500.0 Mbytes
    global   =  131072000 doubles =   1000.0 Mbytes (distinct from heap & stack)
    total    =  262143997 doubles =   2000.0 Mbytes
    verify   = yes
    hardfail = no 


           Directory information
           ---------------------
 
  0 permanent = ./perm
  0 scratch   = /scratch
 
 
 
 
                                NWChem Input Module
                                -------------------
 
 

 Scaling coordinates for geometry "geometry" by  1.889725989
 (inverse scale =  0.529177249)

 
 
                             Geometry "geometry" -> ""
                             -------------------------
 
 Output coordinates in angstroms (scale by  1.889725989 to convert to a.u.)
 
  No.       Tag          Charge          X              Y              Z
 ---- ---------------- ---------- -------------- -------------- --------------
    1 O                    8.0000    -0.52181418     0.21920393     1.38905081
    2 O                    8.0000    -2.88990643    -0.45973608     1.39320306
    3 O                    8.0000    -3.02593704    -1.06978944    -0.79385945
    4 O                    8.0000    -1.96047350     2.92196335    -0.71367601
    5 O                    8.0000     2.10096824    -0.47750119    -0.10776858
    6 O                    8.0000     0.22921213     2.92524274    -0.16549338
    7 O                    8.0000     1.92408017    -2.70794743    -0.33977024
    8 C                    6.0000    -0.91080236    -0.22688718     0.06905064
    9 C                    6.0000    -0.72595225     0.86848454    -1.03402884
   10 C                    6.0000    -0.13117996    -1.51794696    -0.27354527
   11 C                    6.0000    -2.44408126    -0.61895727     0.21007990
   12 C                    6.0000    -0.85597998     2.36862089    -0.59236604
   13 C                    6.0000     1.42537501    -1.56099194    -0.23316037
   14 H                    1.0000    -0.46112350    -2.30823869     0.41296543
   15 H                    1.0000    -0.44688384    -1.85183582    -1.26995853
   16 H                    1.0000     0.25749131     0.73491672    -1.50550538
   17 H                    1.0000    -1.49017590     0.65824998    -1.78791572
   18 H                    1.0000    -1.42278524     0.12725024     1.83546998
   19 Na                  11.0000     1.27273899     1.30942492     0.79248784
   20 O                    8.0000     4.58896640    -1.86255847    -0.04512244
   21 H                    1.0000     3.83470267    -2.48604863    -0.15357625
   22 H                    1.0000     4.02360457    -1.06291952    -0.05753556
 
      Atomic Mass 
      ----------- 
 
      O                 15.994910
      C                 12.000000
      H                  1.007825
      Na                22.989800
 

 Effective nuclear repulsion energy (a.u.)    1114.4498273106

            Nuclear Dipole moment (a.u.) 
            ----------------------------
        X                 Y               Z
 ---------------- ---------------- ----------------
     0.0000000000    -0.0000000000     0.0000000000
 
 
            XYZ format geometry
            -------------------
    22
 geometry
 O                    -0.52181418     0.21920393     1.38905081
 O                    -2.88990643    -0.45973608     1.39320306
 O                    -3.02593704    -1.06978944    -0.79385945
 O                    -1.96047350     2.92196335    -0.71367601
 O                     2.10096824    -0.47750119    -0.10776858
 O                     0.22921213     2.92524274    -0.16549338
 O                     1.92408017    -2.70794743    -0.33977024
 C                    -0.91080236    -0.22688718     0.06905064
 C                    -0.72595225     0.86848454    -1.03402884
 C                    -0.13117996    -1.51794696    -0.27354527
 C                    -2.44408126    -0.61895727     0.21007990
 C                    -0.85597998     2.36862089    -0.59236604
 C                     1.42537501    -1.56099194    -0.23316037
 H                    -0.46112350    -2.30823869     0.41296543
 H                    -0.44688384    -1.85183582    -1.26995853
 H                     0.25749131     0.73491672    -1.50550538
 H                    -1.49017590     0.65824998    -1.78791572
 H                    -1.42278524     0.12725024     1.83546998
 Na                    1.27273899     1.30942492     0.79248784
 O                     4.58896640    -1.86255847    -0.04512244
 H                     3.83470267    -2.48604863    -0.15357625
 H                     4.02360457    -1.06291952    -0.05753556
 
 ==============================================================================
                                internuclear distances
 ------------------------------------------------------------------------------
       center one      |      center two      | atomic units |  angstroms
 ------------------------------------------------------------------------------
    8 C                |   1 O                |     2.73372  |     1.44662
    9 C                |   8 C                |     2.95837  |     1.56550
   10 C                |   8 C                |     2.92268  |     1.54662
   11 C                |   2 O                |     2.40812  |     1.27432
   11 C                |   3 O                |     2.35246  |     1.24487
   11 C                |   8 C                |     3.00256  |     1.58888
   12 C                |   4 O                |     2.34570  |     1.24129
   12 C                |   6 O                |     2.44184  |     1.29216
   12 C                |   9 C                |     2.96535  |     1.56920
   13 C                |   5 O                |     2.42453  |     1.28300
   13 C                |   7 O                |     2.37202  |     1.25522
   13 C                |  10 C                |     2.94358  |     1.55767
   14 H                |  10 C                |     2.07416  |     1.09760
   15 H                |  10 C                |     2.07353  |     1.09726
   16 H                |   9 C                |     2.07637  |     1.09877
   17 H                |   9 C                |     2.06714  |     1.09388
   18 H                |   1 O                |     1.90806  |     1.00970
   19 Na               |   1 O                |     4.12501  |     2.18286
   19 Na               |   5 O                |     4.09226  |     2.16553
   19 Na               |   6 O                |     4.06073  |     2.14885
   21 H                |  20 O                |     1.86060  |     0.98459
   22 H                |  20 O                |     1.85078  |     0.97939
 ------------------------------------------------------------------------------
                         number of included internuclear distances:         22
 ==============================================================================



 ==============================================================================
                                 internuclear angles
 ------------------------------------------------------------------------------
        center 1       |       center 2       |       center 3       |  degrees
 ------------------------------------------------------------------------------
    8 C                |   1 O                |  18 H                |    97.78
    8 C                |   1 O                |  19 Na               |    97.22
   18 H                |   1 O                |  19 Na               |   154.14
   13 C                |   5 O                |  19 Na               |   122.42
   12 C                |   6 O                |  19 Na               |   103.37
    1 O                |   8 C                |   9 C                |   113.29
    1 O                |   8 C                |  10 C                |   108.90
    1 O                |   8 C                |  11 C                |   104.75
    9 C                |   8 C                |  10 C                |   111.62
    9 C                |   8 C                |  11 C                |   110.43
   10 C                |   8 C                |  11 C                |   107.46
    8 C                |   9 C                |  12 C                |   117.44
    8 C                |   9 C                |  16 H                |   108.84
    8 C                |   9 C                |  17 H                |   105.58
   12 C                |   9 C                |  16 H                |   108.13
   12 C                |   9 C                |  17 H                |   108.65
   16 H                |   9 C                |  17 H                |   107.83
    8 C                |  10 C                |  13 C                |   121.40
    8 C                |  10 C                |  14 H                |   108.12
    8 C                |  10 C                |  15 H                |   108.07
   13 C                |  10 C                |  14 H                |   105.32
   13 C                |  10 C                |  15 H                |   107.62
   14 H                |  10 C                |  15 H                |   105.21
    2 O                |  11 C                |   3 O                |   129.09
    2 O                |  11 C                |   8 C                |   112.90
    3 O                |  11 C                |   8 C                |   117.96
    4 O                |  12 C                |   6 O                |   125.98
    4 O                |  12 C                |   9 C                |   118.19
    6 O                |  12 C                |   9 C                |   115.80
    5 O                |  13 C                |   7 O                |   124.80
    5 O                |  13 C                |  10 C                |   120.36
    7 O                |  13 C                |  10 C                |   114.84
    1 O                |  19 Na               |   5 O                |    90.91
    1 O                |  19 Na               |   6 O                |    95.63
    5 O                |  19 Na               |   6 O                |   128.38
   21 H                |  20 O                |  22 H                |    94.21
 ------------------------------------------------------------------------------
                            number of included internuclear angles:         36
 ==============================================================================



  library name resolved from: environment
  library file name is: <
 /home/scicons/cascade/apps/nwchem-6.8.1//src/basis/libraries/>
  


 Summary of "ao basis" -> "" (cartesian)
 ------------------------------------------------------------------------------
       Tag                 Description            Shells   Functions and Types
 ---------------- ------------------------------  ------  ---------------------
 *                           6-31G*                   on all atoms 


 
 
                           NWChem Geometry Optimization
                           ----------------------------
 
 
 maximum gradient threshold         (gmax) =   0.000450
 rms gradient threshold             (grms) =   0.000300
 maximum cartesian step threshold   (xmax) =   0.001800
 rms cartesian step threshold       (xrms) =   0.001200
 fixed trust radius                (trust) =   0.300000
 maximum step size to saddle      (sadstp) =   0.100000
 energy precision                  (eprec) =   5.0D-06
 maximum number of steps          (nptopt) =  100
 initial hessian option           (inhess) =    0
 line search option               (linopt) =    1
 hessian update option            (modupd) =    1
 saddle point option              (modsad) =    0
 initial eigen-mode to follow     (moddir) =    0
 initial variable to follow       (vardir) =    0
 follow first negative mode     (firstneg) =    T
 apply conjugacy                    (opcg) =    F
 source of zmatrix                         =           


          -------------------
          Energy Minimization
          -------------------

 
 Using diagonal initial Hessian 

          --------
          Step   0
          --------
 
 
                         Geometry "geometry" -> "geometry"
                         ---------------------------------
 
 Output coordinates in angstroms (scale by  1.889725989 to convert to a.u.)
 
  No.       Tag          Charge          X              Y              Z
 ---- ---------------- ---------- -------------- -------------- --------------
    1 O                    8.0000    -0.52181418     0.21920393     1.38905081
    2 O                    8.0000    -2.88990643    -0.45973608     1.39320306
    3 O                    8.0000    -3.02593704    -1.06978944    -0.79385945
    4 O                    8.0000    -1.96047350     2.92196335    -0.71367601
    5 O                    8.0000     2.10096824    -0.47750119    -0.10776858
    6 O                    8.0000     0.22921213     2.92524274    -0.16549338
    7 O                    8.0000     1.92408017    -2.70794743    -0.33977024
    8 C                    6.0000    -0.91080236    -0.22688718     0.06905064
    9 C                    6.0000    -0.72595225     0.86848454    -1.03402884
   10 C                    6.0000    -0.13117996    -1.51794696    -0.27354527
   11 C                    6.0000    -2.44408126    -0.61895727     0.21007990
   12 C                    6.0000    -0.85597998     2.36862089    -0.59236604
   13 C                    6.0000     1.42537501    -1.56099194    -0.23316037
   14 H                    1.0000    -0.46112350    -2.30823869     0.41296543
   15 H                    1.0000    -0.44688384    -1.85183582    -1.26995853
   16 H                    1.0000     0.25749131     0.73491672    -1.50550538
   17 H                    1.0000    -1.49017590     0.65824998    -1.78791572
   18 H                    1.0000    -1.42278524     0.12725024     1.83546998
   19 Na                  11.0000     1.27273899     1.30942492     0.79248784
   20 O                    8.0000     4.58896640    -1.86255847    -0.04512244
   21 H                    1.0000     3.83470267    -2.48604863    -0.15357625
   22 H                    1.0000     4.02360457    -1.06291952    -0.05753556
 
      Atomic Mass 
      ----------- 
 
      O                 15.994910
      C                 12.000000
      H                  1.007825
      Na                22.989800
 

 Effective nuclear repulsion energy (a.u.)    1114.4498273106

            Nuclear Dipole moment (a.u.) 
            ----------------------------
        X                 Y               Z
 ---------------- ---------------- ----------------
     0.0000000000    -0.0000000000     0.0000000000
 
 
                                 NWChem DFT Module
                                 -----------------
 
 
                      Basis "ao basis" -> "ao basis" (cartesian)
                      -----
  O (Oxygen)
  ----------
            Exponent  Coefficients 
       -------------- ---------------------------------------------------------
  1 S  5.48467170E+03  0.001831
  1 S  8.25234950E+02  0.013950
  1 S  1.88046960E+02  0.068445
  1 S  5.29645000E+01  0.232714
  1 S  1.68975700E+01  0.470193
  1 S  5.79963530E+00  0.358521
 
  2 S  1.55396160E+01 -0.110778
  2 S  3.59993360E+00 -0.148026
  2 S  1.01376180E+00  1.130767
 
  3 P  1.55396160E+01  0.070874
  3 P  3.59993360E+00  0.339753
  3 P  1.01376180E+00  0.727159
 
  4 S  2.70005800E-01  1.000000
 
  5 P  2.70005800E-01  1.000000
 
  6 D  8.00000000E-01  1.000000
 
  C (Carbon)
  ----------
            Exponent  Coefficients 
       -------------- ---------------------------------------------------------
  1 S  3.04752490E+03  0.001835
  1 S  4.57369510E+02  0.014037
  1 S  1.03948690E+02  0.068843
  1 S  2.92101550E+01  0.232184
  1 S  9.28666300E+00  0.467941
  1 S  3.16392700E+00  0.362312
 
  2 S  7.86827240E+00 -0.119332
  2 S  1.88128850E+00 -0.160854
  2 S  5.44249300E-01  1.143456
 
  3 P  7.86827240E+00  0.068999
  3 P  1.88128850E+00  0.316424
  3 P  5.44249300E-01  0.744308
 
  4 S  1.68714400E-01  1.000000
 
  5 P  1.68714400E-01  1.000000
 
  6 D  8.00000000E-01  1.000000
 
  H (Hydrogen)
  ------------
            Exponent  Coefficients 
       -------------- ---------------------------------------------------------
  1 S  1.87311370E+01  0.033495
  1 S  2.82539370E+00  0.234727
  1 S  6.40121700E-01  0.813757
 
  2 S  1.61277800E-01  1.000000
 
  Na (Sodium)
  -----------
            Exponent  Coefficients 
       -------------- ---------------------------------------------------------
  1 S  9.99320000E+03  0.001938
  1 S  1.49989000E+03  0.014807
  1 S  3.41951000E+02  0.072706
  1 S  9.46797000E+01  0.252629
  1 S  2.97345000E+01  0.493242
  1 S  1.00063000E+01  0.313169
 
  2 S  1.50963000E+02 -0.003542
  2 S  3.55878000E+01 -0.043959
  2 S  1.11683000E+01 -0.109752
  2 S  3.90201000E+00  0.187398
  2 S  1.38177000E+00  0.646699
  2 S  4.66382000E-01  0.306058
 
  3 P  1.50963000E+02  0.005002
  3 P  3.55878000E+01  0.035511
  3 P  1.11683000E+01  0.142825
  3 P  3.90201000E+00  0.338620
  3 P  1.38177000E+00  0.451579
  3 P  4.66382000E-01  0.273271
 
  4 S  4.97966000E-01 -0.248503
  4 S  8.43530000E-02 -0.131704
  4 S  6.66350000E-02  1.233520
 
  5 P  4.97966000E-01 -0.023023
  5 P  8.43530000E-02  0.950359
  5 P  6.66350000E-02  0.059858
 
  6 S  2.59544000E-02  1.000000
 
  7 P  2.59544000E-02  1.000000
 
  8 D  1.75000000E-01  1.000000
 


 Summary of "ao basis" -> "ao basis" (cartesian)
 ------------------------------------------------------------------------------
       Tag                 Description            Shells   Functions and Types
 ---------------- ------------------------------  ------  ---------------------
 O                           6-31G*                  6       15   3s2p1d
 C                           6-31G*                  6       15   3s2p1d
 H                           6-31G*                  2        2   2s
 Na                          6-31G*                  8       19   4s3p1d




 Summary of "ao basis" -> "ao basis" (cartesian)
 ------------------------------------------------------------------------------
       Tag                 Description            Shells   Functions and Types
 ---------------- ------------------------------  ------  ---------------------
 O                           6-31G*                  6       15   3s2p1d
 C                           6-31G*                  6       15   3s2p1d
 H                           6-31G*                  2        2   2s
 Na                          6-31G*                  8       19   4s3p1d


  Caching 1-el integrals 
 
            General Information
            -------------------
          SCF calculation type: DFT
          Wavefunction type:  closed shell.
          No. of atoms     :    22
          No. of electrons :   120
           Alpha electrons :    60
            Beta electrons :    60
          Charge           :    -2
          Spin multiplicity:     1
          Use of symmetry is: off; symmetry adaption is: off
          Maximum number of iterations: 500
          AO basis - number of functions:   243
                     number of shells:   106
          Convergence on energy requested:  1.00D-06
          Convergence on density requested:  1.00D-05
          Convergence on gradient requested:  5.00D-04
 
              XC Information
              --------------
                         B3LYP Method XC Potential
                     Hartree-Fock (Exact) Exchange  0.200          
                        Slater Exchange Functional  0.800 local    
                    Becke 1988 Exchange Functional  0.720 non-local
              Lee-Yang-Parr Correlation Functional  0.810          
                  VWN I RPA Correlation Functional  0.190 local    
 
             Grid Information
             ----------------
          Grid used for XC integration:  medium    
          Radial quadrature: Mura-Knowles        
          Angular quadrature: Lebedev. 
          Tag              B.-S. Rad. Rad. Pts. Rad. Cut. Ang. Pts.
          ---              ---------- --------- --------- ---------
          O                   0.60       49          14.0       434
          C                   0.70       49          14.0       434
          H                   0.35       45          14.0       434
          Na                  1.80       88          11.0       434
          Grid pruning is: on 
          Number of quadrature shells:  1089
          Spatial weights used:  Erf1
 
          Convergence Information
          -----------------------
          Convergence aids based upon iterative change in 
          total energy or number of iterations. 
          Levelshifting, if invoked, occurs when the 
          HOMO/LUMO gap drops below (HL_TOL):  1.00D-02
          DIIS, if invoked, will attempt to extrapolate 
          using up to (NFOCK): 10 stored Fock matrices.

                    Damping( 0%)  Levelshifting(0.5)       DIIS
                  --------------- ------------------- ---------------
          dE  on:    start            ASAP                start   
          dE off:    2 iters        500 iters           500 iters 

 
      Screening Tolerance Information
      -------------------------------
          Density screening/tol_rho:  1.00D-10
          AO Gaussian exp screening on grid/accAOfunc:  14
          CD Gaussian exp screening on grid/accCDfunc:  20
          XC Gaussian exp screening on grid/accXCfunc:  20
          Schwarz screening/accCoul:  1.00D-08

 
      Superposition of Atomic Density Guess
      -------------------------------------
 
 Sum of atomic energies:        -989.32536255

 Renormalizing density from     118.00 to    120
 
      Non-variational initial energy
      ------------------------------

 Total energy =   -1005.456550
 1-e energy   =   -3642.355949
 2-e energy   =    1522.449572
 HOMO         =       0.119806
 LUMO         =       0.223723
 
   Time after variat. SCF:      4.4
   Time prior to 1st pass:      4.4

 Grid_pts file          = /scratch/mol.gridpts.00
 Record size in doubles =  12289        No. of grid_pts per rec  =   3070
 Max. records in memory =      7        Max. recs in file   =  31664089


           Memory utilization after 1st SCF pass: 
           Heap Space remaining (MW):       39.26            39264392
          Stack Space remaining (MW):       65.53            65534076

   convergence    iter        energy       DeltaE   RMS-Dens  Diis-err    time
 ---------------- ----- ----------------- --------- --------- ---------  ------
 d= 0,ls=0.0,diis     1   -996.4685196655 -2.11D+03  1.83D-02  5.18D+00     5.3
 d= 0,ls=0.0,diis     2   -995.2668728227  1.20D+00  1.24D-02  1.87D+01     6.3
 d= 0,ls=0.0,diis     3   -997.0497005861 -1.78D+00  2.74D-03  3.62D-01     7.1
 d= 0,ls=0.0,diis     4   -997.0588161621 -9.12D-03  1.53D-03  2.63D-01     8.0
 d= 0,ls=0.0,diis     5   -997.0816952901 -2.29D-02  4.76D-04  2.94D-02     9.0
  Resetting Diis
 d= 0,ls=0.0,diis     6   -997.0844662965 -2.77D-03  6.38D-05  4.56D-04     9.9
 d= 0,ls=0.0,diis     7   -997.0845028749 -3.66D-05  5.98D-05  9.01D-05    10.8
 d= 0,ls=0.0,diis     8   -997.0844847248  1.82D-05  4.11D-05  2.86D-04    11.7
 d= 0,ls=0.0,diis     9   -997.0845108309 -2.61D-05  6.65D-06  6.28D-06    12.6
 d= 0,ls=0.0,diis    10   -997.0845114155 -5.85D-07  1.44D-06  1.97D-07    13.5


         Total DFT energy =     -997.084511415533
      One electron energy =    -3627.523179021722
           Coulomb energy =     1635.027591878562
    Exchange-Corr. energy =     -119.038751582954
 Nuclear repulsion energy =     1114.449827310581

 Numeric. integr. density =      120.000005214839

     Total iterative time =      9.2s


 
                       DFT Final Molecular Orbital Analysis
                       ------------------------------------
 
 Vector    1  Occ=2.000000D+00  E=-3.818136D+01
              MO Center=  1.3D+00,  1.3D+00,  7.9D-01, r^2= 7.7D-03
   Bfn.  Coefficient  Atom+Function         Bfn.  Coefficient  Atom+Function  
  ----- ------------  ---------------      ----- ------------  ---------------
   206      0.997692  19 Na s         
 
 Vector    2  Occ=2.000000D+00  E=-1.887962D+01
              MO Center= -5.2D-01,  2.2D-01,  1.4D+00, r^2= 1.5D-02
   Bfn.  Coefficient  Atom+Function         Bfn.  Coefficient  Atom+Function  
  ----- ------------  ---------------      ----- ------------  ---------------
     1      0.992604   1 O  s                 2      0.025423   1 O  s         
 
 Vector    3  Occ=2.000000D+00  E=-1.886118D+01
              MO Center=  4.6D+00, -1.9D+00, -4.5D-02, r^2= 1.5D-02
   Bfn.  Coefficient  Atom+Function         Bfn.  Coefficient  Atom+Function  
  ----- ------------  ---------------      ----- ------------  ---------------
   225      0.992802  20 O  s               226      0.026012  20 O  s         
 
 Vector    4  Occ=2.000000D+00  E=-1.885647D+01
              MO Center=  2.1D+00, -4.8D-01, -1.1D-01, r^2= 1.5D-02
   Bfn.  Coefficient  Atom+Function         Bfn.  Coefficient  Atom+Function  
  ----- ------------  ---------------      ----- ------------  ---------------
    61      0.992611   5 O  s                62      0.025282   5 O  s         
 
 Vector    5  Occ=2.000000D+00  E=-1.884571D+01
              MO Center=  1.9D+00, -2.7D+00, -3.4D-01, r^2= 1.5D-02
   Bfn.  Coefficient  Atom+Function         Bfn.  Coefficient  Atom+Function  
  ----- ------------  ---------------      ----- ------------  ---------------
    91      0.992703   7 O  s                92      0.025511   7 O  s         
 
 Vector    6  Occ=2.000000D+00  E=-1.882578D+01
              MO Center= -2.9D+00, -4.6D-01,  1.4D+00, r^2= 1.5D-02
   Bfn.  Coefficient  Atom+Function         Bfn.  Coefficient  Atom+Function  
  ----- ------------  ---------------      ----- ------------  ---------------
    16      0.992679   2 O  s                17      0.025360   2 O  s         
 
 Vector    7  Occ=2.000000D+00  E=-1.882349D+01
              MO Center=  2.3D-01,  2.9D+00, -1.7D-01, r^2= 1.5D-02
   Bfn.  Coefficient  Atom+Function         Bfn.  Coefficient  Atom+Function  
  ----- ------------  ---------------      ----- ------------  ---------------
    76      0.992665   6 O  s                77      0.025402   6 O  s         
 
 Vector    8  Occ=2.000000D+00  E=-1.881411D+01
              MO Center= -2.0D+00,  2.9D+00, -7.1D-01, r^2= 1.5D-02
   Bfn.  Coefficient  Atom+Function         Bfn.  Coefficient  Atom+Function  
  ----- ------------  ---------------      ----- ------------  ---------------
    46      0.992711   4 O  s                47      0.025502   4 O  s         
 
 Vector    9  Occ=2.000000D+00  E=-1.881296D+01
              MO Center= -3.0D+00, -1.1D+00, -7.9D-01, r^2= 1.5D-02
   Bfn.  Coefficient  Atom+Function         Bfn.  Coefficient  Atom+Function  
  ----- ------------  ---------------      ----- ------------  ---------------
    31      0.992693   3 O  s                32      0.025408   3 O  s         
 
 Vector   10  Occ=2.000000D+00  E=-1.003216D+01
              MO Center=  1.4D+00, -1.6D+00, -2.3D-01, r^2= 2.8D-02
   Bfn.  Coefficient  Atom+Function         Bfn.  Coefficient  Atom+Function  
  ----- ------------  ---------------      ----- ------------  ---------------
   181      0.993047  13 C  s               182      0.048201  13 C  s         
 
 Vector   11  Occ=2.000000D+00  E=-1.000346D+01
              MO Center= -8.6D-01,  2.4D+00, -5.9D-01, r^2= 2.8D-02
   Bfn.  Coefficient  Atom+Function         Bfn.  Coefficient  Atom+Function  
  ----- ------------  ---------------      ----- ------------  ---------------
   166      0.993075  12 C  s               167      0.048329  12 C  s         
 
 Vector   12  Occ=2.000000D+00  E=-9.996631D+00
              MO Center= -2.4D+00, -6.2D-01,  2.1D-01, r^2= 2.8D-02
   Bfn.  Coefficient  Atom+Function         Bfn.  Coefficient  Atom+Function  
  ----- ------------  ---------------      ----- ------------  ---------------
   151      0.993009  11 C  s               152      0.048425  11 C  s         
 
 Vector   13  Occ=2.000000D+00  E=-9.977006D+00
              MO Center= -9.1D-01, -2.3D-01,  6.9D-02, r^2= 2.8D-02
   Bfn.  Coefficient  Atom+Function         Bfn.  Coefficient  Atom+Function  
  ----- ------------  ---------------      ----- ------------  ---------------
   106      0.993504   8 C  s               107      0.050660   8 C  s         
   111     -0.028478   8 C  s         
 
 Vector   14  Occ=2.000000D+00  E=-9.929279D+00
              MO Center= -1.3D-01, -1.5D+00, -2.7D-01, r^2= 2.8D-02
   Bfn.  Coefficient  Atom+Function         Bfn.  Coefficient  Atom+Function  
  ----- ------------  ---------------      ----- ------------  ---------------
   136      0.993078  10 C  s               137      0.050658  10 C  s         
 
 Vector   15  Occ=2.000000D+00  E=-9.914108D+00
              MO Center= -7.3D-01,  8.7D-01, -1.0D+00, r^2= 2.8D-02
   Bfn.  Coefficient  Atom+Function         Bfn.  Coefficient  Atom+Function  
  ----- ------------  ---------------      ----- ------------  ---------------
   121      0.993135   9 C  s               122      0.050949   9 C  s         
 
 Vector   16  Occ=2.000000D+00  E=-1.929480D+00
              MO Center=  1.3D+00,  1.3D+00,  8.0D-01, r^2= 2.1D-01
   Bfn.  Coefficient  Atom+Function         Bfn.  Coefficient  Atom+Function  
  ----- ------------  ---------------      ----- ------------  ---------------
   207      1.026215  19 Na s               206     -0.245987  19 Na s         
 
 Vector   17  Occ=2.000000D+00  E=-8.655956D-01
              MO Center=  1.3D+00,  1.3D+00,  7.9D-01, r^2= 2.9D-01
   Bfn.  Coefficient  Atom+Function         Bfn.  Coefficient  Atom+Function  
  ----- ------------  ---------------      ----- ------------  ---------------
   208      0.736158  19 Na px              210      0.533863  19 Na pz        
   209      0.387070  19 Na py                6     -0.036679   1 O  s         
     2     -0.030780   1 O  s         
 
 Vector   18  Occ=2.000000D+00  E=-8.624012D-01
              MO Center=  1.3D+00,  1.3D+00,  7.9D-01, r^2= 2.7D-01
   Bfn.  Coefficient  Atom+Function         Bfn.  Coefficient  Atom+Function  
  ----- ------------  ---------------      ----- ------------  ---------------
   210      0.833112  19 Na pz              208     -0.506185  19 Na px        
   209     -0.174360  19 Na py                6      0.035283   1 O  s         
     2      0.029811   1 O  s         
 
 Vector   19  Occ=2.000000D+00  E=-8.607820D-01
              MO Center=  1.3D+00,  1.3D+00,  7.8D-01, r^2= 3.2D-01
   Bfn.  Coefficient  Atom+Function         Bfn.  Coefficient  Atom+Function  
  ----- ------------  ---------------      ----- ------------  ---------------
   209      0.888556  19 Na py              208     -0.418280  19 Na px        
   210     -0.068808  19 Na pz               66     -0.042804   5 O  s         
    81      0.037091   6 O  s                62     -0.035058   5 O  s         
    77      0.031339   6 O  s         
 
 Vector   20  Occ=2.000000D+00  E=-7.785592D-01
              MO Center=  1.7D+00, -1.5D+00, -1.5D-01, r^2= 2.2D+00
   Bfn.  Coefficient  Atom+Function         Bfn.  Coefficient  Atom+Function  
  ----- ------------  ---------------      ----- ------------  ---------------
    66      0.275955   5 O  s                92      0.273062   7 O  s         
    96      0.268305   7 O  s                62      0.265865   5 O  s         
   182      0.253569  13 C  s               181     -0.129770  13 C  s         
    91     -0.127196   7 O  s                61     -0.124742   5 O  s         
    94      0.101944   7 O  py                6      0.091414   1 O  s         
 
 Vector   21  Occ=2.000000D+00  E=-7.686894D-01
              MO Center= -1.4D+00, -2.8D-01,  8.0D-01, r^2= 3.2D+00
   Bfn.  Coefficient  Atom+Function         Bfn.  Coefficient  Atom+Function  
  ----- ------------  ---------------      ----- ------------  ---------------
     6      0.308959   1 O  s                 2      0.293763   1 O  s         
    17      0.208771   2 O  s                21      0.199676   2 O  s         
   152      0.177989  11 C  s                32      0.144086   3 O  s         
    36      0.138798   3 O  s                 1     -0.135624   1 O  s         
   107      0.117731   8 C  s                16     -0.097058   2 O  s         
 
 Vector   22  Occ=2.000000D+00  E=-7.442783D-01
              MO Center= -9.7D-01,  2.6D+00, -4.8D-01, r^2= 1.6D+00
   Bfn.  Coefficient  Atom+Function         Bfn.  Coefficient  Atom+Function  
  ----- ------------  ---------------      ----- ------------  ---------------
    47      0.295581   4 O  s                51      0.288307   4 O  s         
    81      0.265112   6 O  s               167      0.264624  12 C  s         
    77      0.261205   6 O  s                46     -0.137387   4 O  s         
   166     -0.135767  12 C  s                76     -0.122023   6 O  s         
    48      0.107816   4 O  px              169      0.087949  12 C  py        
 
 Vector   23  Occ=2.000000D+00  E=-7.281321D-01
              MO Center= -1.9D+00, -3.6D-01,  5.2D-01, r^2= 2.9D+00
   Bfn.  Coefficient  Atom+Function         Bfn.  Coefficient  Atom+Function  
  ----- ------------  ---------------      ----- ------------  ---------------
     6      0.334940   1 O  s                 2      0.298649   1 O  s         
    32     -0.256607   3 O  s                36     -0.245008   3 O  s         
   152     -0.192611  11 C  s                21     -0.190655   2 O  s         
    17     -0.170878   2 O  s                 1     -0.138514   1 O  s         
    31      0.119086   3 O  s               151      0.098450  11 C  s         
 
 Vector   24  Occ=2.000000D+00  E=-7.208644D-01
              MO Center=  4.3D+00, -1.8D+00, -6.5D-02, r^2= 7.6D-01
   Bfn.  Coefficient  Atom+Function         Bfn.  Coefficient  Atom+Function  
  ----- ------------  ---------------      ----- ------------  ---------------
   230      0.470795  20 O  s               226      0.457028  20 O  s         
   225     -0.208791  20 O  s               242      0.135956  22 H  s         
   240      0.132201  21 H  s               227     -0.121100  20 O  px        
   231     -0.057613  20 O  px               62     -0.043199   5 O  s         
   182     -0.043352  13 C  s                92     -0.040953   7 O  s         
 
 Vector   25  Occ=2.000000D+00  E=-6.883406D-01
              MO Center=  1.9D+00, -1.5D+00, -2.1D-01, r^2= 1.4D+00
   Bfn.  Coefficient  Atom+Function         Bfn.  Coefficient  Atom+Function  
  ----- ------------  ---------------      ----- ------------  ---------------
    66      0.373049   5 O  s                96     -0.351128   7 O  s         
    62      0.333942   5 O  s                92     -0.318546   7 O  s         
   184      0.257986  13 C  py               61     -0.156300   5 O  s         
    91      0.149465   7 O  s                94     -0.081705   7 O  py        
    64     -0.066403   5 O  py               63     -0.057457   5 O  px        
 
 Vector   26  Occ=2.000000D+00  E=-6.626129D-01
              MO Center= -2.7D+00, -6.7D-01,  3.7D-01, r^2= 1.6D+00
   Bfn.  Coefficient  Atom+Function         Bfn.  Coefficient  Atom+Function  
  ----- ------------  ---------------      ----- ------------  ---------------
    21      0.382627   2 O  s                36     -0.338029   3 O  s         
    17      0.329518   2 O  s                32     -0.304355   3 O  s         
   155      0.253491  11 C  pz               16     -0.155868   2 O  s         
    31      0.143328   3 O  s                 6     -0.113139   1 O  s         
     2     -0.084603   1 O  s                20     -0.081381   2 O  pz        
 
 Vector   27  Occ=2.000000D+00  E=-6.575335D-01
              MO Center= -7.4D-01,  2.8D+00, -4.5D-01, r^2= 1.4D+00
   Bfn.  Coefficient  Atom+Function         Bfn.  Coefficient  Atom+Function  
  ----- ------------  ---------------      ----- ------------  ---------------
    81      0.381408   6 O  s                77      0.342909   6 O  s         
    51     -0.328609   4 O  s                47     -0.307594   4 O  s         
   168      0.255534  12 C  px               76     -0.160392   6 O  s         
    46      0.143757   4 O  s                48     -0.078129   4 O  px        
    78     -0.068075   6 O  px              170      0.063264  12 C  pz        
 
 Vector   28  Occ=2.000000D+00  E=-5.095547D-01
              MO Center= -5.3D-01, -4.8D-01, -2.8D-01, r^2= 2.6D+00
   Bfn.  Coefficient  Atom+Function         Bfn.  Coefficient  Atom+Function  
  ----- ------------  ---------------      ----- ------------  ---------------
   137      0.243998  10 C  s               107      0.214915   8 C  s         
   141      0.205819  10 C  s               111      0.187311   8 C  s         
   122      0.187989   9 C  s                 6     -0.173785   1 O  s         
   126      0.165983   9 C  s                 2     -0.129392   1 O  s         
   136     -0.126683  10 C  s               106     -0.110459   8 C  s         
 
 Vector   29  Occ=2.000000D+00  E=-4.430837D-01
              MO Center= -3.8D-01, -1.3D-01, -6.3D-01, r^2= 3.6D+00
   Bfn.  Coefficient  Atom+Function         Bfn.  Coefficient  Atom+Function  
  ----- ------------  ---------------      ----- ------------  ---------------
   122      0.272804   9 C  s               126      0.261362   9 C  s         
   137     -0.239552  10 C  s               141     -0.225348  10 C  s         
   121     -0.141725   9 C  s               109      0.124659   8 C  py        
   169     -0.124267  12 C  py              136      0.122969  10 C  s         
   183      0.120536  13 C  px              202      0.094335  17 H  s         
 
 Vector   30  Occ=2.000000D+00  E=-3.476739D-01
              MO Center= -7.5D-01, -2.7D-01, -8.0D-02, r^2= 4.1D+00
   Bfn.  Coefficient  Atom+Function         Bfn.  Coefficient  Atom+Function  
  ----- ------------  ---------------      ----- ------------  ---------------
   107      0.245295   8 C  s               111      0.238414   8 C  s         
   153      0.165608  11 C  px                6     -0.138394   1 O  s         
     5     -0.134855   1 O  pz              126     -0.135016   9 C  s         
   152      0.130147  11 C  s               122     -0.128619   9 C  s         
   183      0.124940  13 C  px              138     -0.122108  10 C  px        
 
 Vector   31  Occ=2.000000D+00  E=-2.716464D-01
              MO Center= -8.7D-01, -1.8D-01,  6.1D-01, r^2= 2.9D+00
   Bfn.  Coefficient  Atom+Function         Bfn.  Coefficient  Atom+Function  
  ----- ------------  ---------------      ----- ------------  ---------------
     5      0.280441   1 O  pz                3     -0.231016   1 O  px        
   108     -0.218964   8 C  px              204      0.172570  18 H  s         
     9      0.163500   1 O  pz              153      0.142035  11 C  px        
     7     -0.138050   1 O  px              139     -0.109908  10 C  py        
    18      0.093060   2 O  px               21     -0.092540   2 O  s         
 
 Vector   32  Occ=2.000000D+00  E=-2.515907D-01
              MO Center=  8.1D-01, -1.1D+00, -1.1D-01, r^2= 4.8D+00
   Bfn.  Coefficient  Atom+Function         Bfn.  Coefficient  Atom+Function  
  ----- ------------  ---------------      ----- ------------  ---------------
   182     -0.280232  13 C  s                66      0.261752   5 O  s         
    96      0.243402   7 O  s               186     -0.243012  13 C  s         
    64      0.203396   5 O  py              138     -0.176683  10 C  px        
    94     -0.166179   7 O  py               62      0.149013   5 O  s         
    63      0.145411   5 O  px               92      0.143452   7 O  s         
 
 Vector   33  Occ=2.000000D+00  E=-2.373069D-01
              MO Center= -5.7D-01,  1.1D+00, -3.8D-01, r^2= 5.3D+00
   Bfn.  Coefficient  Atom+Function         Bfn.  Coefficient  Atom+Function  
  ----- ------------  ---------------      ----- ------------  ---------------
   167     -0.248987  12 C  s                81      0.234517   6 O  s         
   124     -0.227402   9 C  py              171     -0.219424  12 C  s         
    51      0.190473   4 O  s               110     -0.148285   8 C  pz        
    77      0.133341   6 O  s                47      0.129387   4 O  s         
    78      0.123942   6 O  px                5      0.119749   1 O  pz        
 
 Vector   34  Occ=2.000000D+00  E=-2.270677D-01
              MO Center=  3.9D+00, -1.7D+00, -9.3D-02, r^2= 2.9D+00
   Bfn.  Coefficient  Atom+Function         Bfn.  Coefficient  Atom+Function  
  ----- ------------  ---------------      ----- ------------  ---------------
   228      0.469637  20 O  py              232      0.266203  20 O  py        
   240     -0.205876  21 H  s               242      0.205434  22 H  s         
   241     -0.153417  21 H  s               243      0.147456  22 H  s         
   184     -0.103606  13 C  py               93     -0.099579   7 O  px        
    63      0.086880   5 O  px               94      0.064376   7 O  py        
 
 Vector   35  Occ=2.000000D+00  E=-1.962674D-01
              MO Center= -9.4D-01, -2.5D-01,  2.0D-01, r^2= 7.9D+00
   Bfn.  Coefficient  Atom+Function         Bfn.  Coefficient  Atom+Function  
  ----- ------------  ---------------      ----- ------------  ---------------
    20      0.243326   2 O  pz               21      0.222085   2 O  s         
    36      0.198886   3 O  s               152     -0.196490  11 C  s         
    64     -0.181334   5 O  py              156     -0.168614  11 C  s         
   183      0.163187  13 C  px               35     -0.151069   3 O  pz        
    24      0.139782   2 O  pz               66     -0.140292   5 O  s         
 
 Vector   36  Occ=2.000000D+00  E=-1.918404D-01
              MO Center= -1.6D-02, -4.1D-01, -2.9D-01, r^2= 5.1D+00
   Bfn.  Coefficient  Atom+Function         Bfn.  Coefficient  Atom+Function  
  ----- ------------  ---------------      ----- ------------  ---------------
   140      0.229261  10 C  pz              125     -0.182045   9 C  pz        
   109     -0.173421   8 C  py               64     -0.156800   5 O  py        
   185      0.145067  13 C  pz                4     -0.142054   1 O  py        
   183      0.128423  13 C  px               66     -0.120185   5 O  s         
   198     -0.115789  15 H  s                95      0.104510   7 O  pz        
 
 Vector   37  Occ=2.000000D+00  E=-1.838745D-01
              MO Center= -6.2D-01, -6.0D-01,  9.7D-02, r^2= 6.8D+00
   Bfn.  Coefficient  Atom+Function         Bfn.  Coefficient  Atom+Function  
  ----- ------------  ---------------      ----- ------------  ---------------
    36      0.209597   3 O  s                20      0.184393   2 O  pz        
    35     -0.169170   3 O  pz              183     -0.154295  13 C  px        
    64      0.153461   5 O  py              140      0.153861  10 C  pz        
     6     -0.148662   1 O  s                21      0.146351   2 O  s         
   152     -0.145135  11 C  s                 3     -0.143998   1 O  px        
 
 Vector   38  Occ=2.000000D+00  E=-1.726438D-01
              MO Center=  3.8D-01, -4.0D-01, -2.2D-01, r^2= 6.5D+00
   Bfn.  Coefficient  Atom+Function         Bfn.  Coefficient  Atom+Function  
  ----- ------------  ---------------      ----- ------------  ---------------
    94      0.202073   7 O  py              183      0.193033  13 C  px        
    96     -0.184766   7 O  s               123     -0.177667   9 C  px        
   139     -0.150665  10 C  py               81      0.131973   6 O  s         
     3      0.129836   1 O  px               63      0.130052   5 O  px        
   138     -0.130369  10 C  px               64     -0.122637   5 O  py        
 
 Vector   39  Occ=2.000000D+00  E=-1.609419D-01
              MO Center= -1.7D-03, -1.5D-01, -2.4D-01, r^2= 7.5D+00
   Bfn.  Coefficient  Atom+Function         Bfn.  Coefficient  Atom+Function  
  ----- ------------  ---------------      ----- ------------  ---------------
    94      0.189401   7 O  py              123      0.182300   9 C  px        
    51      0.160871   4 O  s                96     -0.158500   7 O  s         
   185     -0.155939  13 C  pz                5     -0.154627   1 O  pz        
   110      0.153928   8 C  pz               48     -0.140889   4 O  px        
   184     -0.130310  13 C  py                3     -0.128278   1 O  px        
 
 Vector   40  Occ=2.000000D+00  E=-1.553380D-01
              MO Center=  9.4D-01, -1.7D-01, -3.3D-01, r^2= 8.5D+00
   Bfn.  Coefficient  Atom+Function         Bfn.  Coefficient  Atom+Function  
  ----- ------------  ---------------      ----- ------------  ---------------
   184     -0.256259  13 C  py               94      0.244274   7 O  py        
    96     -0.223888   7 O  s                78     -0.216849   6 O  px        
   169      0.210227  12 C  py               81     -0.164980   6 O  s         
    93     -0.157904   7 O  px               63      0.152225   5 O  px        
    64      0.141096   5 O  py               98      0.136861   7 O  py        
 
 Vector   41  Occ=2.000000D+00  E=-1.465680D-01
              MO Center= -6.7D-01,  1.0D+00, -5.0D-01, r^2= 6.2D+00
   Bfn.  Coefficient  Atom+Function         Bfn.  Coefficient  Atom+Function  
  ----- ------------  ---------------      ----- ------------  ---------------
    48      0.221449   4 O  px               51     -0.220749   4 O  s         
   125     -0.188868   9 C  pz              123     -0.169687   9 C  px        
    79      0.149544   6 O  py              202      0.149567  17 H  s         
   185     -0.139623  13 C  pz              170     -0.135415  12 C  pz        
   168     -0.130986  12 C  px                5     -0.126149   1 O  pz        
 
 Vector   42  Occ=2.000000D+00  E=-1.344787D-01
              MO Center= -1.7D-01, -4.8D-01,  2.2D-02, r^2= 1.1D+01
   Bfn.  Coefficient  Atom+Function         Bfn.  Coefficient  Atom+Function  
  ----- ------------  ---------------      ----- ------------  ---------------
   227      0.220486  20 O  px               20      0.199988   2 O  pz        
   230      0.174496  20 O  s               155     -0.165474  11 C  pz        
    33      0.163438   3 O  px              231      0.152930  20 O  px        
    36     -0.148799   3 O  s               169     -0.149032  12 C  py        
    78      0.144255   6 O  px              154     -0.135828  11 C  py        
 
 Vector   43  Occ=2.000000D+00  E=-1.248595D-01
              MO Center=  2.8D+00, -1.3D+00, -1.1D-01, r^2= 9.9D+00
   Bfn.  Coefficient  Atom+Function         Bfn.  Coefficient  Atom+Function  
  ----- ------------  ---------------      ----- ------------  ---------------
   227      0.432526  20 O  px              231      0.304462  20 O  px        
   230      0.298940  20 O  s               226      0.138799  20 O  s         
   240     -0.129514  21 H  s               242     -0.116928  22 H  s         
   139     -0.115985  10 C  py              183      0.105985  13 C  px        
    35     -0.102066   3 O  pz              138     -0.100942  10 C  px        
 
 Vector   44  Occ=2.000000D+00  E=-1.213844D-01
              MO Center= -1.5D+00,  6.2D-01, -2.6D-02, r^2= 7.4D+00
   Bfn.  Coefficient  Atom+Function         Bfn.  Coefficient  Atom+Function  
  ----- ------------  ---------------      ----- ------------  ---------------
   155      0.222253  11 C  pz              168     -0.210584  12 C  px        
    20     -0.197795   2 O  pz               21     -0.177411   2 O  s         
    49     -0.159373   4 O  py               51     -0.159737   4 O  s         
    80      0.159551   6 O  pz               48      0.149251   4 O  px        
    34     -0.145120   3 O  py               33     -0.143804   3 O  px        
 
 Vector   45  Occ=2.000000D+00  E=-1.103822D-01
              MO Center= -8.8D-01,  2.0D-01, -1.5D-01, r^2= 7.0D+00
   Bfn.  Coefficient  Atom+Function         Bfn.  Coefficient  Atom+Function  
  ----- ------------  ---------------      ----- ------------  ---------------
    35     -0.202550   3 O  pz                3      0.190631   1 O  px        
    48     -0.170453   4 O  px              168      0.159066  12 C  px        
   139      0.150155  10 C  py              196     -0.136431  14 H  s         
   197     -0.134764  14 H  s                51      0.133449   4 O  s         
   155      0.131143  11 C  pz               36      0.123360   3 O  s         
 
 Vector   46  Occ=2.000000D+00  E=-1.062558D-01
              MO Center= -2.7D-01,  2.7D-01, -2.8D-01, r^2= 8.0D+00
   Bfn.  Coefficient  Atom+Function         Bfn.  Coefficient  Atom+Function  
  ----- ------------  ---------------      ----- ------------  ---------------
   170      0.209375  12 C  pz               65     -0.178821   5 O  pz        
    95     -0.168846   7 O  pz              140      0.164851  10 C  pz        
   185     -0.157081  13 C  pz               50      0.155974   4 O  pz        
    78     -0.139838   6 O  px               80      0.129909   6 O  pz        
     3      0.124203   1 O  px               48     -0.122809   4 O  px        
 
 Vector   47  Occ=2.000000D+00  E=-9.863197D-02
              MO Center= -1.5D+00, -7.5D-01,  1.6D-01, r^2= 5.3D+00
   Bfn.  Coefficient  Atom+Function         Bfn.  Coefficient  Atom+Function  
  ----- ------------  ---------------      ----- ------------  ---------------
   154      0.224273  11 C  py               34      0.219649   3 O  py        
    19      0.206806   2 O  py              153     -0.177269  11 C  px        
    33     -0.151620   3 O  px               38      0.137224   3 O  py        
   140      0.137439  10 C  pz               23      0.133652   2 O  py        
    20     -0.132238   2 O  pz                5      0.127916   1 O  pz        
 
 Vector   48  Occ=2.000000D+00  E=-9.011221D-02
              MO Center= -1.1D+00,  1.8D-01,  6.0D-03, r^2= 5.2D+00
   Bfn.  Coefficient  Atom+Function         Bfn.  Coefficient  Atom+Function  
  ----- ------------  ---------------      ----- ------------  ---------------
     3      0.253700   1 O  px               35     -0.200893   3 O  pz        
   123      0.197192   9 C  px              153      0.176158  11 C  px        
     7      0.170351   1 O  px                4      0.165300   1 O  py        
   154      0.151544  11 C  py               48      0.143269   4 O  px        
    19      0.132504   2 O  py              202     -0.122016  17 H  s         
 
 Vector   49  Occ=2.000000D+00  E=-7.996514D-02
              MO Center= -9.4D-01,  7.4D-01, -2.5D-01, r^2= 5.5D+00
   Bfn.  Coefficient  Atom+Function         Bfn.  Coefficient  Atom+Function  
  ----- ------------  ---------------      ----- ------------  ---------------
    50      0.200265   4 O  pz               80      0.198780   6 O  pz        
   125     -0.184540   9 C  pz              170      0.180438  12 C  pz        
   110      0.161421   8 C  pz                4     -0.155314   1 O  py        
    19      0.140728   2 O  py               54      0.130349   4 O  pz        
   140     -0.130072  10 C  pz               34      0.127892   3 O  py        
 
 Vector   50  Occ=2.000000D+00  E=-2.577534D-02
              MO Center=  4.5D+00, -1.9D+00, -4.2D-02, r^2= 7.4D-01
   Bfn.  Coefficient  Atom+Function         Bfn.  Coefficient  Atom+Function  
  ----- ------------  ---------------      ----- ------------  ---------------
   229      0.627790  20 O  pz              233      0.511227  20 O  pz        
   227     -0.059796  20 O  px              236     -0.051913  20 O  dxz       
   231     -0.050821  20 O  px              228     -0.036798  20 O  py        
    65     -0.033429   5 O  pz              218      0.033262  19 Na pz        
   232     -0.028265  20 O  py              185     -0.027366  13 C  pz        
 
 Vector   51  Occ=2.000000D+00  E=-1.755220D-02
              MO Center= -2.9D-01, -4.7D-02,  6.6D-01, r^2= 3.5D+00
   Bfn.  Coefficient  Atom+Function         Bfn.  Coefficient  Atom+Function  
  ----- ------------  ---------------      ----- ------------  ---------------
     4      0.471271   1 O  py                8      0.359975   1 O  py        
   126     -0.227653   9 C  s               125     -0.178775   9 C  pz        
   141      0.174345  10 C  s               139      0.151189  10 C  py        
   109     -0.149884   8 C  py                5     -0.141772   1 O  pz        
   129     -0.136030   9 C  pz                3     -0.132924   1 O  px        
 
 Vector   52  Occ=2.000000D+00  E=-9.768258D-03
              MO Center=  1.8D+00, -1.5D+00, -1.5D-01, r^2= 2.7D+00
   Bfn.  Coefficient  Atom+Function         Bfn.  Coefficient  Atom+Function  
  ----- ------------  ---------------      ----- ------------  ---------------
    95     -0.435154   7 O  pz               65      0.422731   5 O  pz        
    99     -0.332628   7 O  pz               69      0.325850   5 O  pz        
     4      0.115514   1 O  py              211      0.096110  19 Na s         
    94      0.095219   7 O  py                8      0.090159   1 O  py        
    63     -0.070099   5 O  px              194      0.068903  13 C  dyz       
 
 Vector   53  Occ=2.000000D+00  E=-2.615728D-03
              MO Center=  1.5D+00, -8.9D-01, -4.2D-02, r^2= 4.3D+00
   Bfn.  Coefficient  Atom+Function         Bfn.  Coefficient  Atom+Function  
  ----- ------------  ---------------      ----- ------------  ---------------
    63      0.471328   5 O  px               67      0.339039   5 O  px        
    64     -0.207720   5 O  py              138      0.208624  10 C  px        
   141      0.188851  10 C  s                18      0.163276   2 O  px        
   227      0.153648  20 O  px               68     -0.147170   5 O  py        
    93      0.141724   7 O  px              142      0.135720  10 C  px        
 
 Vector   54  Occ=2.000000D+00  E= 7.532440D-03
              MO Center=  1.0D+00, -1.7D+00, -4.8D-02, r^2= 6.0D+00
   Bfn.  Coefficient  Atom+Function         Bfn.  Coefficient  Atom+Function  
  ----- ------------  ---------------      ----- ------------  ---------------
    93      0.433610   7 O  px               97      0.312556   7 O  px        
    94      0.234443   7 O  py               64      0.231597   5 O  py        
    18      0.214013   2 O  px              111     -0.213784   8 C  s         
    98      0.175026   7 O  py               68      0.170877   5 O  py        
    22      0.157600   2 O  px               63     -0.114313   5 O  px        
 
 Vector   55  Occ=2.000000D+00  E= 1.942315D-02
              MO Center= -1.0D+00,  2.3D+00, -3.0D-01, r^2= 4.3D+00
   Bfn.  Coefficient  Atom+Function         Bfn.  Coefficient  Atom+Function  
  ----- ------------  ---------------      ----- ------------  ---------------
    50      0.346766   4 O  pz               80     -0.334056   6 O  pz        
    79      0.273351   6 O  py               54      0.260826   4 O  pz        
    84     -0.253532   6 O  pz               83      0.207029   6 O  py        
    34     -0.158648   3 O  py               48     -0.158019   4 O  px        
    19      0.133849   2 O  py              211     -0.130143  19 Na s         
 
 Vector   56  Occ=2.000000D+00  E= 2.303262D-02
              MO Center= -1.8D+00,  5.8D-01,  1.7D-01, r^2= 6.8D+00
   Bfn.  Coefficient  Atom+Function         Bfn.  Coefficient  Atom+Function  
  ----- ------------  ---------------      ----- ------------  ---------------
    19      0.365670   2 O  py               23      0.282263   2 O  py        
    34     -0.253029   3 O  py               80      0.211056   6 O  pz        
    38     -0.192844   3 O  py               79      0.186036   6 O  py        
    50     -0.171935   4 O  pz               84      0.159553   6 O  pz        
    35      0.147657   3 O  pz               78     -0.145699   6 O  px        
 
 Vector   57  Occ=2.000000D+00  E= 2.762380D-02
              MO Center= -1.5D+00, -3.4D-01,  3.4D-01, r^2= 7.4D+00
   Bfn.  Coefficient  Atom+Function         Bfn.  Coefficient  Atom+Function  
  ----- ------------  ---------------      ----- ------------  ---------------
    18      0.374172   2 O  px               22      0.277390   2 O  px        
    34      0.271455   3 O  py               93     -0.212188   7 O  px        
    38      0.209121   3 O  py               79      0.202069   6 O  py        
    97     -0.157676   7 O  px               83      0.149289   6 O  py        
   108      0.135637   8 C  px               20      0.128385   2 O  pz        
 
 Vector   58  Occ=2.000000D+00  E= 3.052736D-02
              MO Center= -1.0D+00,  1.3D+00,  6.5D-02, r^2= 6.6D+00
   Bfn.  Coefficient  Atom+Function         Bfn.  Coefficient  Atom+Function  
  ----- ------------  ---------------      ----- ------------  ---------------
    79      0.345265   6 O  py               83      0.253337   6 O  py        
    18     -0.241290   2 O  px               19     -0.208994   2 O  py        
   124      0.184921   9 C  py               80      0.182941   6 O  pz        
    22     -0.175731   2 O  px               78     -0.162941   6 O  px        
    23     -0.157040   2 O  py              126      0.151529   9 C  s         
 
 Vector   59  Occ=2.000000D+00  E= 4.530092D-02
              MO Center= -1.9D+00,  1.6D+00, -5.6D-01, r^2= 5.1D+00
   Bfn.  Coefficient  Atom+Function         Bfn.  Coefficient  Atom+Function  
  ----- ------------  ---------------      ----- ------------  ---------------
    49      0.402380   4 O  py               53      0.287744   4 O  py        
    33     -0.267316   3 O  px               37     -0.198453   3 O  px        
    50      0.197040   4 O  pz               78      0.190342   6 O  px        
    48      0.185204   4 O  px              126      0.168024   9 C  s         
    35      0.161656   3 O  pz               82      0.148829   6 O  px        
 
 Vector   60  Occ=2.000000D+00  E= 4.904768D-02
              MO Center= -2.2D+00,  1.9D-01, -4.6D-01, r^2= 5.3D+00
   Bfn.  Coefficient  Atom+Function         Bfn.  Coefficient  Atom+Function  
  ----- ------------  ---------------      ----- ------------  ---------------
    33      0.390643   3 O  px               37      0.295868   3 O  px        
    49      0.274414   4 O  py               35     -0.224988   3 O  pz        
    53      0.202590   4 O  py              108      0.191390   8 C  px        
    20     -0.168854   2 O  pz              111     -0.168392   8 C  s         
    39     -0.153419   3 O  pz               24     -0.143599   2 O  pz        
 
 Vector   61  Occ=0.000000D+00  E= 1.756577D-01
              MO Center=  2.7D+00,  2.2D+00,  2.1D+00, r^2= 8.5D+00
   Bfn.  Coefficient  Atom+Function         Bfn.  Coefficient  Atom+Function  
  ----- ------------  ---------------      ----- ------------  ---------------
   215      1.105146  19 Na s               211     -0.955022  19 Na s         
   216      0.555187  19 Na px              218      0.486345  19 Na pz        
   217      0.339563  19 Na py              219      0.238980  19 Na dxx       
   224      0.234113  19 Na dzz             222      0.211672  19 Na dyy       
   207     -0.137253  19 Na s               126     -0.134045   9 C  s         
 
 Vector   62  Occ=0.000000D+00  E= 2.211054D-01
              MO Center=  1.7D+00,  1.6D+00,  5.0D-01, r^2= 1.6D+01
   Bfn.  Coefficient  Atom+Function         Bfn.  Coefficient  Atom+Function  
  ----- ------------  ---------------      ----- ------------  ---------------
   218      1.022353  19 Na pz              216     -0.590612  19 Na px        
   217     -0.346207  19 Na py              215     -0.195471  19 Na s         
   214     -0.192671  19 Na pz              211      0.159328  19 Na s         
   212      0.128331  19 Na px              205     -0.124265  18 H  s         
   172      0.090852  12 C  px              213      0.090811  19 Na py        
 
 Vector   63  Occ=0.000000D+00  E= 2.403126D-01
              MO Center=  1.7D+00,  1.1D+00,  1.1D+00, r^2= 1.7D+01
   Bfn.  Coefficient  Atom+Function         Bfn.  Coefficient  Atom+Function  
  ----- ------------  ---------------      ----- ------------  ---------------
   217      1.341868  19 Na py              215     -0.472903  19 Na s         
   216     -0.396328  19 Na px              213     -0.340633  19 Na py        
   141      0.222043  10 C  s               186      0.216365  13 C  s         
   211      0.211462  19 Na s               218      0.183196  19 Na pz        
   173     -0.142945  12 C  py              128     -0.127259   9 C  py        
 
 Vector   64  Occ=0.000000D+00  E= 2.600978D-01
              MO Center=  1.5D-01,  1.3D+00,  2.1D-01, r^2= 1.5D+01
   Bfn.  Coefficient  Atom+Function         Bfn.  Coefficient  Atom+Function  
  ----- ------------  ---------------      ----- ------------  ---------------
   215      1.464512  19 Na s               216     -1.194589  19 Na px        
   211     -0.753178  19 Na s               218     -0.640419  19 Na pz        
   212      0.388283  19 Na px              171     -0.336367  12 C  s         
   126     -0.310560   9 C  s               141     -0.291237  10 C  s         
   217     -0.292314  19 Na py              214      0.257862  19 Na pz        
 
 Vector   65  Occ=0.000000D+00  E= 2.937807D-01
              MO Center=  1.6D+00, -4.7D-01,  5.2D-01, r^2= 8.4D+00
   Bfn.  Coefficient  Atom+Function         Bfn.  Coefficient  Atom+Function  
  ----- ------------  ---------------      ----- ------------  ---------------
   211      2.034518  19 Na s               215     -1.145060  19 Na s         
   185     -0.427029  13 C  pz              222     -0.397302  19 Na dyy       
   212      0.393704  19 Na px              199     -0.390046  15 H  s         
   189     -0.374456  13 C  pz              224     -0.371805  19 Na dzz       
   219     -0.368287  19 Na dxx             214      0.356071  19 Na pz        
 
 Vector   66  Occ=0.000000D+00  E= 3.035564D-01
              MO Center=  1.4D+00,  6.6D-01,  7.8D-01, r^2= 1.1D+01
   Bfn.  Coefficient  Atom+Function         Bfn.  Coefficient  Atom+Function  
  ----- ------------  ---------------      ----- ------------  ---------------
   211      2.973261  19 Na s               215     -1.685786  19 Na s         
   222     -0.595214  19 Na dyy             219     -0.577500  19 Na dxx       
   224     -0.518988  19 Na dzz             212      0.386169  19 Na px        
   197     -0.330063  14 H  s               214      0.330558  19 Na pz        
   185      0.293840  13 C  pz              189      0.268151  13 C  pz        
 
 Vector   67  Occ=0.000000D+00  E= 3.199349D-01
              MO Center= -8.2D-01,  1.6D+00, -4.4D-01, r^2= 5.5D+00
   Bfn.  Coefficient  Atom+Function         Bfn.  Coefficient  Atom+Function  
  ----- ------------  ---------------      ----- ------------  ---------------
   211      1.080623  19 Na s               215     -0.677628  19 Na s         
   111     -0.451469   8 C  s               170      0.416971  12 C  pz        
   174      0.360133  12 C  pz              129      0.326936   9 C  pz        
   114      0.311628   8 C  pz              203      0.311017  17 H  s         
    54     -0.293949   4 O  pz               50     -0.275006   4 O  pz        
 
 Vector   68  Occ=0.000000D+00  E= 3.348513D-01
              MO Center= -1.8D+00, -2.6D-01, -7.0D-03, r^2= 5.1D+00
   Bfn.  Coefficient  Atom+Function         Bfn.  Coefficient  Atom+Function  
  ----- ------------  ---------------      ----- ------------  ---------------
   141      0.573995  10 C  s               201      0.432173  16 H  s         
   154      0.429427  11 C  py              158      0.410357  11 C  py        
   211      0.325318  19 Na s               215     -0.313272  19 Na s         
    38     -0.291642   3 O  py               23     -0.274804   2 O  py        
    34     -0.271154   3 O  py               19     -0.259239   2 O  py        
 
 Vector   69  Occ=0.000000D+00  E= 3.920046D-01
              MO Center=  1.1D+00,  5.7D-01,  5.8D-01, r^2= 8.7D+00
   Bfn.  Coefficient  Atom+Function         Bfn.  Coefficient  Atom+Function  
  ----- ------------  ---------------      ----- ------------  ---------------
   214      1.005763  19 Na pz              197     -0.821262  14 H  s         
   212     -0.689537  19 Na px              218     -0.523448  19 Na pz        
     6     -0.482189   1 O  s               141      0.460230  10 C  s         
   143     -0.391508  10 C  py              216      0.341030  19 Na px        
   111      0.325185   8 C  s               144      0.323742  10 C  pz        
 
 Vector   70  Occ=0.000000D+00  E= 3.969510D-01
              MO Center=  3.6D-01, -1.3D+00, -2.4D-01, r^2= 8.7D+00
   Bfn.  Coefficient  Atom+Function         Bfn.  Coefficient  Atom+Function  
  ----- ------------  ---------------      ----- ------------  ---------------
   141      1.332404  10 C  s               199     -1.300581  15 H  s         
   197     -1.233874  14 H  s               143     -0.778387  10 C  py        
   230     -0.490806  20 O  s               142     -0.484394  10 C  px        
   216     -0.458105  19 Na px              215      0.411347  19 Na s         
   243      0.413209  22 H  s               241      0.408519  21 H  s         
 
 Vector   71  Occ=0.000000D+00  E= 4.021775D-01
              MO Center= -6.0D-01,  3.4D-01, -2.4D-01, r^2= 6.0D+00
   Bfn.  Coefficient  Atom+Function         Bfn.  Coefficient  Atom+Function  
  ----- ------------  ---------------      ----- ------------  ---------------
   203      1.083497  17 H  s               156      0.719069  11 C  s         
     6     -0.619910   1 O  s               171     -0.538594  12 C  s         
   205      0.533291  18 H  s               128      0.473075   9 C  py        
   214     -0.473873  19 Na pz              215     -0.409846  19 Na s         
   127      0.399467   9 C  px              129      0.395722   9 C  pz        
 
 Vector   72  Occ=0.000000D+00  E= 4.154092D-01
              MO Center=  2.2D+00, -1.1D+00, -2.7D-01, r^2= 9.6D+00
   Bfn.  Coefficient  Atom+Function         Bfn.  Coefficient  Atom+Function  
  ----- ------------  ---------------      ----- ------------  ---------------
   230      1.049237  20 O  s               241     -0.942333  21 H  s         
   141      0.917963  10 C  s               243     -0.872273  22 H  s         
   201      0.693555  16 H  s               215      0.569900  19 Na s         
   199     -0.525542  15 H  s               211     -0.517046  19 Na s         
   127     -0.473219   9 C  px              197     -0.454488  14 H  s         
 
 Vector   73  Occ=0.000000D+00  E= 4.311264D-01
              MO Center=  1.6D+00, -7.4D-02,  4.5D-01, r^2= 9.6D+00
   Bfn.  Coefficient  Atom+Function         Bfn.  Coefficient  Atom+Function  
  ----- ------------  ---------------      ----- ------------  ---------------
   213      1.132236  19 Na py              243     -0.776956  22 H  s         
   197     -0.677260  14 H  s               217     -0.599029  19 Na py        
   199      0.530858  15 H  s               144      0.463205  10 C  pz        
   111      0.456309   8 C  s               241      0.449569  21 H  s         
    66      0.446031   5 O  s                81     -0.350639   6 O  s         
 
 Vector   74  Occ=0.000000D+00  E= 4.339827D-01
              MO Center=  1.5D-01, -7.3D-01, -3.5D-01, r^2= 8.3D+00
   Bfn.  Coefficient  Atom+Function         Bfn.  Coefficient  Atom+Function  
  ----- ------------  ---------------      ----- ------------  ---------------
   199      1.347888  15 H  s               144      0.979556  10 C  pz        
   197     -0.776259  14 H  s               203     -0.592524  17 H  s         
   186      0.563491  13 C  s               213     -0.544711  19 Na py        
   212      0.533986  19 Na px              141     -0.496913  10 C  s         
   126      0.431639   9 C  s               243      0.399055  22 H  s         
 
 Vector   75  Occ=0.000000D+00  E= 4.458637D-01
              MO Center=  1.4D-01,  1.6D-01, -5.5D-01, r^2= 8.2D+00
   Bfn.  Coefficient  Atom+Function         Bfn.  Coefficient  Atom+Function  
  ----- ------------  ---------------      ----- ------------  ---------------
   211      1.299765  19 Na s               201      1.169862  16 H  s         
   127     -1.031055   9 C  px              215     -0.948208  19 Na s         
   203     -0.827959  17 H  s               197      0.552226  14 H  s         
   243      0.547463  22 H  s               212     -0.445036  19 Na px        
   230     -0.445566  20 O  s                 6     -0.420312   1 O  s         
 
 Vector   76  Occ=0.000000D+00  E= 4.508751D-01
              MO Center= -8.6D-01,  4.3D-01, -1.3D-01, r^2= 7.5D+00
   Bfn.  Coefficient  Atom+Function         Bfn.  Coefficient  Atom+Function  
  ----- ------------  ---------------      ----- ------------  ---------------
   126      1.462565   9 C  s               203     -1.318556  17 H  s         
   205      1.103027  18 H  s               201     -0.980095  16 H  s         
     6     -0.756183   1 O  s               129     -0.715775   9 C  pz        
   186     -0.402018  13 C  s                 7      0.319786   1 O  px        
    21     -0.310142   2 O  s               125     -0.269522   9 C  pz        
 
 Vector   77  Occ=0.000000D+00  E= 4.705815D-01
              MO Center=  2.6D+00, -6.7D-01,  2.8D-01, r^2= 9.3D+00
   Bfn.  Coefficient  Atom+Function         Bfn.  Coefficient  Atom+Function  
  ----- ------------  ---------------      ----- ------------  ---------------
   241      1.116232  21 H  s               243     -0.929364  22 H  s         
   213     -0.815313  19 Na py              232      0.542155  20 O  py        
    96     -0.509139   7 O  s               217      0.475768  19 Na py        
   212      0.452769  19 Na px              197      0.448460  14 H  s         
   141     -0.425104  10 C  s               171     -0.406189  12 C  s         
 
 Vector   78  Occ=0.000000D+00  E= 4.834760D-01
              MO Center= -7.2D-01, -1.5D-02,  6.5D-01, r^2= 7.0D+00
   Bfn.  Coefficient  Atom+Function         Bfn.  Coefficient  Atom+Function  
  ----- ------------  ---------------      ----- ------------  ---------------
   205      1.351714  18 H  s               186      0.917796  13 C  s         
   215     -0.859238  19 Na s               126     -0.848316   9 C  s         
   111     -0.791309   8 C  s               201      0.794604  16 H  s         
   211      0.714286  19 Na s               142     -0.637736  10 C  px        
   156      0.611585  11 C  s               216      0.511109  19 Na px        
 
 Vector   79  Occ=0.000000D+00  E= 4.990643D-01
              MO Center= -1.6D-01,  1.3D-01, -4.2D-01, r^2= 6.1D+00
   Bfn.  Coefficient  Atom+Function         Bfn.  Coefficient  Atom+Function  
  ----- ------------  ---------------      ----- ------------  ---------------
   126      2.153360   9 C  s               111     -1.708412   8 C  s         
   171     -1.188550  12 C  s               186      1.051660  13 C  s         
   201     -0.975060  16 H  s               142     -0.768169  10 C  px        
   114      0.599188   8 C  pz              215      0.535160  19 Na s         
   143      0.517050  10 C  py              129      0.476363   9 C  pz        
 
 Vector   80  Occ=0.000000D+00  E= 5.046035D-01
              MO Center=  3.0D-01,  2.9D-01,  2.0D-01, r^2= 7.0D+00
   Bfn.  Coefficient  Atom+Function         Bfn.  Coefficient  Atom+Function  
  ----- ------------  ---------------      ----- ------------  ---------------
   211      2.141060  19 Na s               141     -0.962889  10 C  s         
   113     -0.909959   8 C  py              212     -0.872250  19 Na px        
   215     -0.777613  19 Na s               142      0.721893  10 C  px        
   156     -0.715318  11 C  s               213     -0.627305  19 Na py        
   111      0.622138   8 C  s               214     -0.561123  19 Na pz        
 
 Vector   81  Occ=0.000000D+00  E= 5.256806D-01
              MO Center= -5.4D-01, -2.8D-01, -2.3D-01, r^2= 5.1D+00
   Bfn.  Coefficient  Atom+Function         Bfn.  Coefficient  Atom+Function  
  ----- ------------  ---------------      ----- ------------  ---------------
   111      1.884082   8 C  s               186      1.340912  13 C  s         
   141     -1.144224  10 C  s               156     -1.072516  11 C  s         
   128      0.962310   9 C  py              126     -0.699696   9 C  s         
   113      0.579118   8 C  py              197      0.578999  14 H  s         
   142     -0.558785  10 C  px              171     -0.557413  12 C  s         
 
 Vector   82  Occ=0.000000D+00  E= 5.341401D-01
              MO Center= -2.5D-01,  1.8D-01, -1.8D-01, r^2= 6.9D+00
   Bfn.  Coefficient  Atom+Function         Bfn.  Coefficient  Atom+Function  
  ----- ------------  ---------------      ----- ------------  ---------------
   171      1.553824  12 C  s               141      1.286105  10 C  s         
   211      1.210082  19 Na s               112     -1.040546   8 C  px        
   156     -1.010408  11 C  s               143      0.939264  10 C  py        
   113      0.934194   8 C  py              201     -0.712448  16 H  s         
   128     -0.667345   9 C  py              127      0.611741   9 C  px        
 
 Vector   83  Occ=0.000000D+00  E= 5.593580D-01
              MO Center= -8.0D-01, -1.7D-01, -3.1D-02, r^2= 5.1D+00
   Bfn.  Coefficient  Atom+Function         Bfn.  Coefficient  Atom+Function  
  ----- ------------  ---------------      ----- ------------  ---------------
   156      1.649259  11 C  s               186      1.159650  13 C  s         
   112      1.010706   8 C  px              113      1.010301   8 C  py        
   129     -0.906498   9 C  pz              142     -0.885512  10 C  px        
   171      0.711560  12 C  s               126     -0.661739   9 C  s         
   211      0.563488  19 Na s               197     -0.559168  14 H  s         
 
 Vector   84  Occ=0.000000D+00  E= 5.685509D-01
              MO Center= -3.8D-01,  7.1D-02, -2.6D-01, r^2= 5.0D+00
   Bfn.  Coefficient  Atom+Function         Bfn.  Coefficient  Atom+Function  
  ----- ------------  ---------------      ----- ------------  ---------------
   171      1.502423  12 C  s               186      1.227539  13 C  s         
   128     -1.106195   9 C  py              114      1.019680   8 C  pz        
   144     -0.590579  10 C  pz                6     -0.506985   1 O  s         
    51     -0.507530   4 O  s               199     -0.502002  15 H  s         
   201      0.492424  16 H  s               141     -0.466319  10 C  s         
 
 Vector   85  Occ=0.000000D+00  E= 6.093849D-01
              MO Center=  6.6D-01, -7.0D-01,  2.3D-02, r^2= 7.9D+00
   Bfn.  Coefficient  Atom+Function         Bfn.  Coefficient  Atom+Function  
  ----- ------------  ---------------      ----- ------------  ---------------
   186      1.481084  13 C  s               187      1.458758  13 C  px        
    96     -1.058459   7 O  s               141      1.044413  10 C  s         
    66     -0.924979   5 O  s               156     -0.846924  11 C  s         
   211     -0.766351  19 Na s                98     -0.636276   7 O  py        
   157      0.635410  11 C  px               68      0.616559   5 O  py        
 
 Vector   86  Occ=0.000000D+00  E= 6.364749D-01
              MO Center= -6.3D-01,  6.6D-02,  7.6D-02, r^2= 8.9D+00
   Bfn.  Coefficient  Atom+Function         Bfn.  Coefficient  Atom+Function  
  ----- ------------  ---------------      ----- ------------  ---------------
   156      1.121799  11 C  s               211      0.969218  19 Na s         
   157     -0.923656  11 C  px               96     -0.792616   7 O  s         
   141      0.786869  10 C  s               173     -0.783323  12 C  py        
   187      0.740153  13 C  px               21     -0.733612   2 O  s         
    51      0.730880   4 O  s               171     -0.715769  12 C  s         
 
 Vector   87  Occ=0.000000D+00  E= 6.397626D-01
              MO Center= -5.8D-01,  1.2D+00, -3.4D-01, r^2= 7.9D+00
   Bfn.  Coefficient  Atom+Function         Bfn.  Coefficient  Atom+Function  
  ----- ------------  ---------------      ----- ------------  ---------------
    51      1.572525   4 O  s               173     -1.461191  12 C  py        
   172      1.162701  12 C  px              171     -1.044689  12 C  s         
[...]
   14 H                    1.0000    -0.46087537    -2.30813277     0.41319936
   15 H                    1.0000    -0.44678731    -1.85200443    -1.26984872
   16 H                    1.0000     0.25740212     0.73523211    -1.50556807
   17 H                    1.0000    -1.49024326     0.65800244    -1.78768842
   18 H                    1.0000    -1.42286379     0.12736095     1.83555250
   19 Na                  11.0000     1.27255463     1.30946860     0.79255160
   20 O                    8.0000     4.58896340    -1.86271761    -0.04508276
   21 H                    1.0000     3.83485983    -2.48656233    -0.15365840
   22 H                    1.0000     4.02337567    -1.06317422    -0.05766010
 
      Atomic Mass 
      ----------- 
 
      O                 15.994910
      C                 12.000000
      H                  1.007825
      Na                22.989800
 

 Effective nuclear repulsion energy (a.u.)    1114.4442521069

            Nuclear Dipole moment (a.u.) 
            ----------------------------
        X                 Y               Z
 ---------------- ---------------- ----------------
    -0.0022346320     0.0068732864    -0.0029619345
 
 
                                 NWChem DFT Module
                                 -----------------
 
 


 Summary of "ao basis" -> "ao basis" (cartesian)
 ------------------------------------------------------------------------------
       Tag                 Description            Shells   Functions and Types
 ---------------- ------------------------------  ------  ---------------------
 O                           6-31G*                  6       15   3s2p1d
 C                           6-31G*                  6       15   3s2p1d
 H                           6-31G*                  2        2   2s
 Na                          6-31G*                  8       19   4s3p1d



  The DFT is already converged 

         Total DFT energy =   -997.084511870942

 
            General Information
            -------------------
          SCF calculation type: DFT
          Wavefunction type:  closed shell.
          No. of atoms     :    22
          No. of electrons :   120
           Alpha electrons :    60
            Beta electrons :    60
          Charge           :    -2
          Spin multiplicity:     1
          Use of symmetry is: off; symmetry adaption is: off
          Maximum number of iterations: 500
          AO basis - number of functions:   243
                     number of shells:   106
          Convergence on energy requested:  1.00D-06
          Convergence on density requested:  1.00D-05
          Convergence on gradient requested:  5.00D-04
 
              XC Information
              --------------
                         B3LYP Method XC Potential
                     Hartree-Fock (Exact) Exchange  0.200          
                        Slater Exchange Functional  0.800 local    
                    Becke 1988 Exchange Functional  0.720 non-local
              Lee-Yang-Parr Correlation Functional  0.810          
                  VWN I RPA Correlation Functional  0.190 local    
 
             Grid Information
             ----------------
          Grid used for XC integration:  medium    
          Radial quadrature: Mura-Knowles        
          Angular quadrature: Lebedev. 
          Tag              B.-S. Rad. Rad. Pts. Rad. Cut. Ang. Pts.
          ---              ---------- --------- --------- ---------
          O                   0.60       49          14.0       434
          C                   0.70       49          14.0       434
          H                   0.35       45          14.0       434
          Na                  1.80       88          11.0       434
          Grid pruning is: on 
          Number of quadrature shells:  1089
          Spatial weights used:  Erf1
 
          Convergence Information
          -----------------------
          Convergence aids based upon iterative change in 
          total energy or number of iterations. 
          Levelshifting, if invoked, occurs when the 
          HOMO/LUMO gap drops below (HL_TOL):  1.00D-02
          DIIS, if invoked, will attempt to extrapolate 
          using up to (NFOCK): 10 stored Fock matrices.

                    Damping( 0%)  Levelshifting(0.5)       DIIS
                  --------------- ------------------- ---------------
          dE  on:    start            ASAP                start   
          dE off:    2 iters        500 iters           500 iters 

 
      Screening Tolerance Information
      -------------------------------
          Density screening/tol_rho:  1.00D-10
          AO Gaussian exp screening on grid/accAOfunc:  14
          CD Gaussian exp screening on grid/accCDfunc:  20
          XC Gaussian exp screening on grid/accXCfunc:  20
          Schwarz screening/accCoul:  1.00D-08

 
 
                            NWChem DFT Gradient Module
                            --------------------------
 
 

  charge          =  -2.00
  wavefunction    = closed shell



                         DFT ENERGY GRADIENTS

    atom               coordinates                        gradient
                 x          y          z           x          y          z
   1 O      -0.986309   0.414024   2.625278    0.000062   0.000052  -0.000066
   2 O      -5.461317  -0.868414   2.632384    0.000018  -0.000051   0.000011
   3 O      -5.717659  -2.021979  -1.500346   -0.000034   0.000021  -0.000005
   4 O      -3.705056   5.521638  -1.348505   -0.000011  -0.000047   0.000061
   5 O       3.970302  -0.902121  -0.203649   -0.000031   0.000006  -0.000016
   6 O       0.432977   5.528160  -0.312270   -0.000030   0.000014   0.000051
   7 O       3.636221  -5.117017  -0.642530    0.000015  -0.000017   0.000063
   8 C      -1.721259  -0.428710   0.130633    0.000061   0.000009  -0.000081
   9 C      -1.371938   1.641433  -1.953997   -0.000035  -0.000092   0.000101
  10 C      -0.247725  -2.868355  -0.516896   -0.000035   0.000029  -0.000030
  11 C      -4.618437  -1.169673   0.396853   -0.000078  -0.000020   0.000073
  12 C      -1.617506   4.476502  -1.120319    0.000101   0.000029  -0.000163
  13 C       2.693655  -2.949716  -0.440649   -0.000009   0.000014   0.000029
  14 H      -0.870928  -4.361738   0.780834   -0.000041  -0.000005  -0.000007
  15 H      -0.844306  -3.499781  -2.399666   -0.000022   0.000043  -0.000009
  16 H       0.486419   1.389387  -2.845111    0.000010  -0.000066   0.000006
  17 H      -2.816151   1.243444  -3.378241   -0.000015   0.000070  -0.000020
  18 H      -2.688823   0.240677   3.468691   -0.000014  -0.000043  -0.000013
  19 Na      2.404780   2.474537   1.497705    0.000053  -0.000032   0.000006
  20 O       8.671883  -3.520026  -0.085194    0.000017   0.000056  -0.000026
  21 H       7.246834  -4.698921  -0.290372   -0.000017   0.000006   0.000009
  22 H       7.603078  -2.009108  -0.108962    0.000034   0.000023   0.000027
 
                 ----------------------------------------
                 |  Time  |  1-e(secs)   |  2-e(secs)   |
                 ----------------------------------------
                 |  CPU   |       0.01   |       2.05   |
                 ----------------------------------------
                 |  WALL  |       0.00   |       1.77   |
                 ----------------------------------------

  Step       Energy      Delta E   Gmax     Grms     Xrms     Xmax   Walltime
  ---- ---------------- -------- -------- -------- -------- -------- --------
@    1    -997.08451187 -4.6D-07  0.00016  0.00005  0.00031  0.00097     20.4
                                     ok       ok       ok       ok  


      ----------------------
      Optimization converged
      ----------------------


  Step       Energy      Delta E   Gmax     Grms     Xrms     Xmax   Walltime
  ---- ---------------- -------- -------- -------- -------- -------- --------
@    1    -997.08451187 -4.6D-07  0.00016  0.00005  0.00031  0.00097     20.4
                                     ok       ok       ok       ok  

 
 
                         Geometry "geometry" -> "geometry"
                         ---------------------------------
 
 Output coordinates in angstroms (scale by  1.889725989 to convert to a.u.)
 
  No.       Tag          Charge          X              Y              Z
 ---- ---------------- ---------- -------------- -------------- --------------
    1 O                    8.0000    -0.52193241     0.21909212     1.38923747
    2 O                    8.0000    -2.89000469    -0.45954472     1.39299774
    3 O                    8.0000    -3.02565509    -1.06998509    -0.79394872
    4 O                    8.0000    -1.96063154     2.92192539    -0.71359792
    5 O                    8.0000     2.10099336    -0.47738211    -0.10776650
    6 O                    8.0000     0.22912138     2.92537646    -0.16524614
    7 O                    8.0000     1.92420556    -2.70780897    -0.34001200
    8 C                    6.0000    -0.91085124    -0.22686348     0.06912828
    9 C                    6.0000    -0.72599862     0.86860878    -1.03401087
   10 C                    6.0000    -0.13109040    -1.51786803    -0.27352950
   11 C                    6.0000    -2.44397182    -0.61896458     0.21000555
   12 C                    6.0000    -0.85594764     2.36886293    -0.59284721
   13 C                    6.0000     1.42542118    -1.56092277    -0.23318167
   14 H                    1.0000    -0.46087537    -2.30813277     0.41319936
   15 H                    1.0000    -0.44678731    -1.85200443    -1.26984872
   16 H                    1.0000     0.25740212     0.73523211    -1.50556807
   17 H                    1.0000    -1.49024326     0.65800244    -1.78768842
   18 H                    1.0000    -1.42286379     0.12736095     1.83555250
   19 Na                  11.0000     1.27255463     1.30946860     0.79255160
   20 O                    8.0000     4.58896340    -1.86271761    -0.04508276
   21 H                    1.0000     3.83485983    -2.48656233    -0.15365840
   22 H                    1.0000     4.02337567    -1.06317422    -0.05766010
 
      Atomic Mass 
      ----------- 
 
      O                 15.994910
      C                 12.000000
      H                  1.007825
      Na                22.989800
 

 Effective nuclear repulsion energy (a.u.)    1114.4442521069

            Nuclear Dipole moment (a.u.) 
            ----------------------------
        X                 Y               Z
 ---------------- ---------------- ----------------
    -0.0022346320     0.0068732864    -0.0029619345
 
 ==============================================================================
                                internuclear distances
 ------------------------------------------------------------------------------
       center one      |      center two      | atomic units |  angstroms
 ------------------------------------------------------------------------------
    8 C                |   1 O                |     2.73379  |     1.44666
    9 C                |   8 C                |     2.95858  |     1.56561
   10 C                |   8 C                |     2.92275  |     1.54665
   11 C                |   2 O                |     2.40807  |     1.27430
   11 C                |   3 O                |     2.35246  |     1.24487
   11 C                |   8 C                |     3.00226  |     1.58873
   12 C                |   4 O                |     2.34569  |     1.24128
   12 C                |   6 O                |     2.44201  |     1.29226
   12 C                |   9 C                |     2.96529  |     1.56916
   13 C                |   5 O                |     2.42459  |     1.28304
   13 C                |   7 O                |     2.37200  |     1.25521
   13 C                |  10 C                |     2.94349  |     1.55763
   14 H                |  10 C                |     2.07429  |     1.09767
   15 H                |  10 C                |     2.07351  |     1.09725
   16 H                |   9 C                |     2.07632  |     1.09874
   17 H                |   9 C                |     2.06703  |     1.09383
   18 H                |   1 O                |     1.90786  |     1.00960
   19 Na               |   1 O                |     4.12512  |     2.18292
   19 Na               |   5 O                |     4.09235  |     2.16558
   19 Na               |   6 O                |     4.06062  |     2.14879
   21 H                |  20 O                |     1.86082  |     0.98470
   22 H                |  20 O                |     1.85089  |     0.97945
 ------------------------------------------------------------------------------
                         number of included internuclear distances:         22
 ==============================================================================



 ==============================================================================
                                 internuclear angles
 ------------------------------------------------------------------------------
        center 1       |       center 2       |       center 3       |  degrees
 ------------------------------------------------------------------------------
    8 C                |   1 O                |  18 H                |    97.79
    8 C                |   1 O                |  19 Na               |    97.21
   18 H                |   1 O                |  19 Na               |   154.13
   13 C                |   5 O                |  19 Na               |   122.41
   12 C                |   6 O                |  19 Na               |   103.38
    1 O                |   8 C                |   9 C                |   113.30
    1 O                |   8 C                |  10 C                |   108.90
    1 O                |   8 C                |  11 C                |   104.75
    9 C                |   8 C                |  10 C                |   111.62
    9 C                |   8 C                |  11 C                |   110.43
   10 C                |   8 C                |  11 C                |   107.47
    8 C                |   9 C                |  12 C                |   117.46
    8 C                |   9 C                |  16 H                |   108.85
    8 C                |   9 C                |  17 H                |   105.56
   12 C                |   9 C                |  16 H                |   108.11
   12 C                |   9 C                |  17 H                |   108.66
   16 H                |   9 C                |  17 H                |   107.83
    8 C                |  10 C                |  13 C                |   121.41
    8 C                |  10 C                |  14 H                |   108.11
    8 C                |  10 C                |  15 H                |   108.08
   13 C                |  10 C                |  14 H                |   105.31
   13 C                |  10 C                |  15 H                |   107.61
   14 H                |  10 C                |  15 H                |   105.21
    2 O                |  11 C                |   3 O                |   129.08
    2 O                |  11 C                |   8 C                |   112.91
    3 O                |  11 C                |   8 C                |   117.96
    4 O                |  12 C                |   6 O                |   125.99
    4 O                |  12 C                |   9 C                |   118.19
    6 O                |  12 C                |   9 C                |   115.80
    5 O                |  13 C                |   7 O                |   124.80
    5 O                |  13 C                |  10 C                |   120.35
    7 O                |  13 C                |  10 C                |   114.84
    1 O                |  19 Na               |   5 O                |    90.91
    1 O                |  19 Na               |   6 O                |    95.64
    5 O                |  19 Na               |   6 O                |   128.39
   21 H                |  20 O                |  22 H                |    94.22
 ------------------------------------------------------------------------------
                            number of included internuclear angles:         36
 ==============================================================================




 Task  times  cpu:       16.9s     wall:       16.9s
 
 
                                NWChem Input Module
                                -------------------
 
 
 Summary of allocated global arrays
-----------------------------------
  No active global arrays



                         GA Statistics for process    0
                         ------------------------------

       create   destroy   get      put      acc     scatter   gather  read&inc
calls:  304      304     2.90e+04 3050     1.16e+04    0        0      900     
number of processes/call 1.58e+00 3.24e+00 1.51e+00 0.00e+00 0.00e+00
bytes total:             1.82e+08 1.95e+07 8.01e+07 0.00e+00 0.00e+00 7.20e+03
bytes remote:            1.67e+08 1.45e+07 7.61e+07 0.00e+00 0.00e+00 0.00e+00
Max memory consumed for GA by this process: 1069472 bytes
 
MA_summarize_allocated_blocks: starting scan ...
MA_summarize_allocated_blocks: scan completed: 0 heap blocks, 0 stack blocks
MA usage statistics:

	allocation statistics:
					      heap	     stack
					      ----	     -----
	current number of blocks	         0	         0
	maximum number of blocks	        24	        51
	current total bytes		         0	         0
	maximum total bytes		 210175032	  34265864
	maximum total K-bytes		    210176	     34266
	maximum total M-bytes		       211	        35
 
 
                                     CITATION
                                     --------
                Please cite the following reference when publishing
                           results obtained with NWChem:
 
                 M. Valiev, E.J. Bylaska, N. Govind, K. Kowalski,
              T.P. Straatsma, H.J.J. van Dam, D. Wang, J. Nieplocha,
                        E. Apra, T.L. Windus, W.A. de Jong
                 "NWChem: a comprehensive and scalable open-source
                  solution for large scale molecular simulations"
                      Comput. Phys. Commun. 181, 1477 (2010)
                           doi:10.1016/j.cpc.2010.04.018
 
                                      AUTHORS
                                      -------
          E. Apra, E. J. Bylaska, W. A. de Jong, N. Govind, K. Kowalski,
       T. P. Straatsma, M. Valiev, H. J. J. van Dam, D. Wang, T. L. Windus,
        J. Hammond, J. Autschbach, K. Bhaskaran-Nair, J. Brabec, K. Lopata,
    S. A. Fischer, S. Krishnamoorthy, M. Jacquelin, W. Ma, M. Klemm, O. Villa,
      Y. Chen, V. Anisimov, F. Aquino, S. Hirata, M. T. Hackler, V. Konjkov,
            D. Mejia-Rodriguez, T. Risthaus, M. Malagoli, A. Marenich,
   A. Otero-de-la-Roza, J. Mullin, P. Nichols, R. Peverati, J. Pittner, Y. Zhao,
        P.-D. Fan, A. Fonari, M. J. Williamson, R. J. Harrison, J. R. Rehr,
      M. Dupuis, D. Silverstein, D. M. A. Smith, J. Nieplocha, V. Tipparaju,
    M. Krishnan, B. E. Van Kuiken, A. Vazquez-Mayagoitia, L. Jensen, M. Swart,
      Q. Wu, T. Van Voorhis, A. A. Auer, M. Nooijen, L. D. Crosby, E. Brown,
      G. Cisneros, G. I. Fann, H. Fruchtl, J. Garza, K. Hirao, R. A. Kendall,
      J. A. Nichols, K. Tsemekhman, K. Wolinski, J. Anchell, D. E. Bernholdt,
      P. Borowski, T. Clark, D. Clerc, H. Dachsel, M. J. O. Deegan, K. Dyall,
    D. Elwood, E. Glendening, M. Gutowski, A. C. Hess, J. Jaffe, B. G. Johnson,
     J. Ju, R. Kobayashi, R. Kutteh, Z. Lin, R. Littlefield, X. Long, B. Meng,
      T. Nakajima, S. Niu, L. Pollack, M. Rosing, K. Glaesemann, G. Sandrone,
      M. Stave, H. Taylor, G. Thomas, J. H. van Lenthe, A. T. Wong, Z. Zhang.

 Total times  cpu:       17.5s     wall:       20.4s
