refund: UserID = lire931
refund: SLURM Job ID = 1954460
refund: Number of nodes          = 16
refund: Number of cores per node = 8
refund: Number of cores          = 128
refund: Amount of time requested = 60
refund: Directory = /dtemp/emslc50069/renzhong/desolvation/n12/vde-b3lypd-0.23LCwPBE/n12-0
 
Processor list
 
g[869-874,876-878,913,942,953-956,959]
 
 argument  1 = /dtemp/emslc50069/renzhong/desolvation/n12/vde-b3lypd-0.23LCwPBE/n12-0/./nwchem-0.nw
All connections between all procs tested: SUCCESS
 


============================== echo of input deck ==============================
#Created on Wed Dec  6 09:12:15 PST 2017 by lire931

echo

memory total 2000 Mb
start mol

permanent_dir ./perm


geometry noautoz noautosym
 load n12-0.xyz
end

basis
*  library 6-31++G**
end

charge -1

dft
 mult 1
 xc xwpbe 1.00 cpbe96 1.0 hfexch 1.00
 cam 0.23 cam_alpha 0.00 cam_beta 1.00
# xc xcampbe96 1.0 cpbe96 1.0 HFexch 1.0
# cam 0.30 cam_alpha 0.25 cam_beta 0.75
 direct
 iterations 500
end

task dft energy


charge 0
dft
 mult 2
 xc xwpbe 1.00 cpbe96 1.0 hfexch 1.00
 cam 0.23 cam_alpha 0.00 cam_beta 1.00
# xc xcampbe96 1.0 cpbe96 1.0 HFexch 1.0
# cam 0.30 cam_alpha 0.25 cam_beta 0.75
 direct
 iterations 500
 print "alpha partner info"
end

task dft energy
================================================================================


                                         
                                         
 
 
              Northwest Computational Chemistry Package (NWChem) 6.6
              ------------------------------------------------------
 
 
                    Environmental Molecular Sciences Laboratory
                       Pacific Northwest National Laboratory
                                Richland, WA 99352
 
                              Copyright (c) 1994-2015
                       Pacific Northwest National Laboratory
                            Battelle Memorial Institute
 
             NWChem is an open-source computational chemistry package
                        distributed under the terms of the
                      Educational Community License (ECL) 2.0
             A copy of the license is included with this distribution
                              in the LICENSE.TXT file
 
                                  ACKNOWLEDGMENT
                                  --------------

            This software and its documentation were developed at the
            EMSL at Pacific Northwest National Laboratory, a multiprogram
            national laboratory, operated for the U.S. Department of Energy
            by Battelle under Contract Number DE-AC05-76RL01830. Support
            for this work was provided by the Department of Energy Office
            of Biological and Environmental Research, Office of Basic
            Energy Sciences, and the Office of Advanced Scientific Computing.


           Job information
           ---------------

    hostname        = g869
    program         = /scratch/nwchem
    date            = Wed Dec  6 09:12:25 2017

    compiled        = Mon_Mar_27_16:39:10_2017
    source          = /home/marat/codes/nwchem-6.6
    nwchem branch   = 6.6
    nwchem revision = 27883
    ga revision     = 10594
    input           = /dtemp/emslc50069/renzhong/desolvation/n12/vde-b3lypd-0.23LCwPBE/n12-0/./nwchem-0.nw
    prefix          = mol.
    data base       = ./perm/mol.db
    status          = startup
    nproc           =      128
    time left       =   3591s



           Memory information
           ------------------

    heap     =   65535998 doubles =    500.0 Mbytes
    stack    =   65535995 doubles =    500.0 Mbytes
    global   =  131072000 doubles =   1000.0 Mbytes (distinct from heap & stack)
    total    =  262143993 doubles =   2000.0 Mbytes
    verify   = yes
    hardfail = no 


           Directory information
           ---------------------
 
  0 permanent = ./perm
  0 scratch   = /scratch
 
 
 
 
                                NWChem Input Module
                                -------------------
 
 

 Scaling coordinates for geometry "geometry" by  1.889725989
 (inverse scale =  0.529177249)

 
 
                             Geometry "geometry" -> ""
                             -------------------------
 
 Output coordinates in angstroms (scale by  1.889725989 to convert to a.u.)
 
  No.       Tag          Charge          X              Y              Z
 ---- ---------------- ---------- -------------- -------------- --------------
    1 C                    6.0000    -2.19321910     0.22264624     2.23187264
    2 H                    1.0000    -3.05250834    -0.15984723     1.67937008
    3 H                    1.0000    -2.55802588     0.77724980     3.10512860
    4 C                    6.0000    -1.31188299    -0.94384078     2.73212545
    5 H                    1.0000    -0.54503848    -0.57754990     3.41706015
    6 H                    1.0000    -1.94854530    -1.64917512     3.28097975
    7 C                    6.0000    -1.40520806     1.20121512     1.35736829
    8 O                    8.0000    -0.40103608     1.76789831     1.89001594
    9 O                    8.0000    -1.77425082     1.38280860     0.15582512
   10 C                    6.0000    -0.65319802    -1.71943129     1.58702918
   11 O                    8.0000    -1.40949521    -2.14575729     0.66612572
   12 O                    8.0000     0.60536742    -1.89817060     1.61850311
   13 Na                  11.0000     1.88036164     0.87777857    -1.46870715
   14 O                    8.0000    -3.35665143    -0.82053048    -0.70236900
   15 H                    1.0000    -3.01437092     0.08587775    -0.56947501
   16 H                    1.0000    -2.77549310    -1.35325460    -0.11221802
   17 O                    8.0000     0.91167463    -4.57409802     0.26770723
   18 H                    1.0000     0.86139091    -3.78176862     0.83023405
   19 H                    1.0000     0.50794673    -4.28740955    -0.56451936
   20 O                    8.0000    -0.42598006    -2.61323259    -1.75206575
   21 H                    1.0000    -1.21491496    -2.68893421    -2.33237665
   22 H                    1.0000    -0.79080304    -2.53221758    -0.82782504
   23 O                    8.0000    -0.53605256     3.67931158    -0.95628317
   24 H                    1.0000    -0.09747548     4.10261388    -0.19145775
   25 H                    1.0000    -1.02319469     2.91637547    -0.57599651
   26 O                    8.0000     1.93826938    -1.52347161    -0.76521092
   27 H                    1.0000     1.55498952    -1.67525181     0.12991754
   28 H                    1.0000     1.33712505    -2.01059613    -1.35831462
   29 O                    8.0000    -2.89210795    -2.25530251    -2.94112306
   30 H                    1.0000    -3.57338916    -2.93648463    -2.91012259
   31 H                    1.0000    -3.11706396    -1.62358155    -2.20692394
   32 O                    8.0000     1.04446033     2.58250409    -2.88729592
   33 H                    1.0000     0.40091077     1.91784182    -3.17776426
   34 H                    1.0000     0.53139081     3.10188308    -2.21833716
   35 O                    8.0000     2.02822882     1.80815463     0.62586832
   36 H                    1.0000     1.07251676     1.86243380     0.85453580
   37 H                    1.0000     2.34635860     1.22606244     1.34808782
   38 O                    8.0000     4.07303937    -0.16562319    -1.63577206
   39 H                    1.0000     4.71277091     0.08587712    -0.96019364
   40 H                    1.0000     3.51699914    -0.87762133    -1.24454130
   41 O                    8.0000     1.85487774     0.23870709     2.90602115
   42 H                    1.0000     1.52922605    -0.61700581     2.54743165
   43 H                    1.0000     1.05201528     0.79128620     2.91222158
   44 O                    8.0000    -0.33968277     0.23683861    -1.99184874
   45 H                    1.0000    -0.89383154     0.59102788    -1.26941959
   46 H                    1.0000    -0.42577281    -0.73681518    -1.95598013
   47 O                    8.0000     0.74282204     4.34008409     1.49663036
   48 H                    1.0000     0.21088935     3.59680959     1.84315366
   49 H                    1.0000     1.58510547     3.91210795     1.27492386
 
      Atomic Mass 
      ----------- 
 
      C                 12.000000
      H                  1.007825
      O                 15.994910
      Na                22.989800
 

 Effective nuclear repulsion energy (a.u.)    2395.0684037915

            Nuclear Dipole moment (a.u.) 
            ----------------------------
        X                 Y               Z
 ---------------- ---------------- ----------------
     0.0000000000     0.0000000000    -0.0000000000
 
 
            XYZ format geometry
            -------------------
    49
 geometry
 C                    -2.19321910     0.22264624     2.23187264
 H                    -3.05250834    -0.15984723     1.67937008
 H                    -2.55802588     0.77724980     3.10512860
 C                    -1.31188299    -0.94384078     2.73212545
 H                    -0.54503848    -0.57754990     3.41706015
 H                    -1.94854530    -1.64917512     3.28097975
 C                    -1.40520806     1.20121512     1.35736829
 O                    -0.40103608     1.76789831     1.89001594
 O                    -1.77425082     1.38280860     0.15582512
 C                    -0.65319802    -1.71943129     1.58702918
 O                    -1.40949521    -2.14575729     0.66612572
 O                     0.60536742    -1.89817060     1.61850311
 Na                    1.88036164     0.87777857    -1.46870715
 O                    -3.35665143    -0.82053048    -0.70236900
 H                    -3.01437092     0.08587775    -0.56947501
 H                    -2.77549310    -1.35325460    -0.11221802
 O                     0.91167463    -4.57409802     0.26770723
 H                     0.86139091    -3.78176862     0.83023405
 H                     0.50794673    -4.28740955    -0.56451936
 O                    -0.42598006    -2.61323259    -1.75206575
 H                    -1.21491496    -2.68893421    -2.33237665
 H                    -0.79080304    -2.53221758    -0.82782504
 O                    -0.53605256     3.67931158    -0.95628317
 H                    -0.09747548     4.10261388    -0.19145775
 H                    -1.02319469     2.91637547    -0.57599651
 O                     1.93826938    -1.52347161    -0.76521092
 H                     1.55498952    -1.67525181     0.12991754
 H                     1.33712505    -2.01059613    -1.35831462
 O                    -2.89210795    -2.25530251    -2.94112306
 H                    -3.57338916    -2.93648463    -2.91012259
 H                    -3.11706396    -1.62358155    -2.20692394
 O                     1.04446033     2.58250409    -2.88729592
 H                     0.40091077     1.91784182    -3.17776426
 H                     0.53139081     3.10188308    -2.21833716
 O                     2.02822882     1.80815463     0.62586832
 H                     1.07251676     1.86243380     0.85453580
 H                     2.34635860     1.22606244     1.34808782
 O                     4.07303937    -0.16562319    -1.63577206
 H                     4.71277091     0.08587712    -0.96019364
 H                     3.51699914    -0.87762133    -1.24454130
 O                     1.85487774     0.23870709     2.90602115
 H                     1.52922605    -0.61700581     2.54743165
 H                     1.05201528     0.79128620     2.91222158
 O                    -0.33968277     0.23683861    -1.99184874
 H                    -0.89383154     0.59102788    -1.26941959
 H                    -0.42577281    -0.73681518    -1.95598013
 O                     0.74282204     4.34008409     1.49663036
 H                     0.21088935     3.59680959     1.84315366
 H                     1.58510547     3.91210795     1.27492386
 
 ==============================================================================
                                internuclear distances
 ------------------------------------------------------------------------------
       center one      |      center two      | atomic units |  angstroms
 ------------------------------------------------------------------------------
    2 H                |   1 C                |     2.06139  |     1.09084
    3 H                |   1 C                |     2.07289  |     1.09693
    4 C                |   1 C                |     2.92004  |     1.54522
    5 H                |   4 C                |     2.06262  |     1.09149
    6 H                |   4 C                |     2.07360  |     1.09730
    7 C                |   1 C                |     2.89277  |     1.53079
    8 O                |   7 C                |     2.40018  |     1.27012
    9 O                |   7 C                |     2.39993  |     1.26999
   10 C                |   4 C                |     2.89483  |     1.53188
   11 O                |  10 C                |     2.39168  |     1.26562
   12 O                |  10 C                |     2.40294  |     1.27158
   15 H                |  14 O                |     1.84806  |     0.97795
   16 H                |  14 O                |     1.86099  |     0.98479
   18 H                |  17 O                |     1.83872  |     0.97301
   19 H                |  17 O                |     1.83000  |     0.96839
   21 H                |  20 O                |     1.85627  |     0.98230
   22 H                |  20 O                |     1.88393  |     0.99694
   24 H                |  23 O                |     1.84816  |     0.97800
   25 H                |  23 O                |     1.85540  |     0.98183
   26 O                |  13 Na               |     4.72970  |     2.50285
   27 H                |  26 O                |     1.86231  |     0.98549
   28 H                |  26 O                |     1.84230  |     0.97490
   30 H                |  29 O                |     1.82152  |     0.96391
   31 H                |  29 O                |     1.87904  |     0.99435
   32 O                |  13 Na               |     4.47878  |     2.37007
   33 H                |  32 O                |     1.83245  |     0.96969
   34 H                |  32 O                |     1.87121  |     0.99020
   35 O                |  13 Na               |     4.34008  |     2.29667
   36 H                |  35 O                |     1.85984  |     0.98419
   37 H                |  35 O                |     1.85313  |     0.98063
   38 O                |  13 Na               |     4.59962  |     2.43402
   39 H                |  38 O                |     1.82132  |     0.96380
   40 H                |  38 O                |     1.86038  |     0.98447
   42 H                |  41 O                |     1.85817  |     0.98330
   43 H                |  41 O                |     1.84185  |     0.97466
   44 O                |  13 Na               |     4.47713  |     2.36919
   45 H                |  44 O                |     1.84617  |     0.97695
   46 H                |  44 O                |     1.84836  |     0.97811
   48 H                |  47 O                |     1.84719  |     0.97749
   49 H                |  47 O                |     1.83387  |     0.97044
 ------------------------------------------------------------------------------
                         number of included internuclear distances:         40
 ==============================================================================



 ==============================================================================
                                 internuclear angles
 ------------------------------------------------------------------------------
        center 1       |       center 2       |       center 3       |  degrees
 ------------------------------------------------------------------------------
    2 H                |   1 C                |   3 H                |   108.57
    2 H                |   1 C                |   4 C                |   110.40
    2 H                |   1 C                |   7 C                |   109.90
    3 H                |   1 C                |   4 C                |   108.28
    3 H                |   1 C                |   7 C                |   107.62
    4 C                |   1 C                |   7 C                |   111.96
    1 C                |   4 C                |   5 H                |   110.52
    1 C                |   4 C                |   6 H                |   108.44
    1 C                |   4 C                |  10 C                |   112.67
    5 H                |   4 C                |   6 H                |   108.03
    5 H                |   4 C                |  10 C                |   109.69
    6 H                |   4 C                |  10 C                |   107.33
    1 C                |   7 C                |   8 O                |   116.91
    1 C                |   7 C                |   9 O                |   118.84
    8 O                |   7 C                |   9 O                |   124.24
    4 C                |  10 C                |  11 O                |   117.23
    4 C                |  10 C                |  12 O                |   118.57
   11 O                |  10 C                |  12 O                |   124.20
   26 O                |  13 Na               |  32 O                |   150.05
   26 O                |  13 Na               |  35 O                |    97.52
   26 O                |  13 Na               |  38 O                |    65.62
   26 O                |  13 Na               |  44 O                |    79.87
   32 O                |  13 Na               |  35 O                |   106.09
   32 O                |  13 Na               |  38 O                |   125.80
   32 O                |  13 Na               |  44 O                |    74.45
   35 O                |  13 Na               |  38 O                |   100.27
   35 O                |  13 Na               |  44 O                |   111.80
   38 O                |  13 Na               |  44 O                |   135.48
   15 H                |  14 O                |  16 H                |   102.32
   18 H                |  17 O                |  19 H                |   103.55
   21 H                |  20 O                |  22 H                |   105.07
   24 H                |  23 O                |  25 H                |   104.83
   13 Na               |  26 O                |  27 H                |   113.21
   13 Na               |  26 O                |  28 H                |   107.10
   27 H                |  26 O                |  28 H                |   103.64
   30 H                |  29 O                |  31 H                |   105.39
   13 Na               |  32 O                |  33 H                |    85.43
   13 Na               |  32 O                |  34 H                |    98.95
   33 H                |  32 O                |  34 H                |   102.59
   13 Na               |  35 O                |  36 H                |    99.89
   13 Na               |  35 O                |  37 H                |   116.88
   36 H                |  35 O                |  37 H                |   100.17
   13 Na               |  38 O                |  39 H                |   115.97
   13 Na               |  38 O                |  40 H                |    76.94
   39 H                |  38 O                |  40 H                |   106.56
   42 H                |  41 O                |  43 H                |   102.88
   13 Na               |  44 O                |  45 H                |   105.67
   13 Na               |  44 O                |  46 H                |   110.10
   45 H                |  44 O                |  46 H                |   106.49
   48 H                |  47 O                |  49 H                |   102.59
 ------------------------------------------------------------------------------
                            number of included internuclear angles:         50
 ==============================================================================



  library name resolved from: environment
  library file name is: <
 /home/scicons/cascade/apps/nwchem-6.3/src/basis/libraries/>
  


 Summary of "ao basis" -> "" (cartesian)
 ------------------------------------------------------------------------------
       Tag                 Description            Shells   Functions and Types
 ---------------- ------------------------------  ------  ---------------------
 *                         6-31++G**                  on all atoms 


  pbe96 is a nonlocal functional; adding pw91lda local functional. 
 
                                 NWChem DFT Module
                                 -----------------
 
 
                      Basis "ao basis" -> "ao basis" (cartesian)
                      -----
  C (Carbon)
  ----------
            Exponent  Coefficients 
       -------------- ---------------------------------------------------------
  1 S  3.04752490E+03  0.001835
  1 S  4.57369510E+02  0.014037
  1 S  1.03948690E+02  0.068843
  1 S  2.92101550E+01  0.232184
  1 S  9.28666300E+00  0.467941
  1 S  3.16392700E+00  0.362312
 
  2 S  7.86827240E+00 -0.119332
  2 S  1.88128850E+00 -0.160854
  2 S  5.44249300E-01  1.143456
 
  3 P  7.86827240E+00  0.068999
  3 P  1.88128850E+00  0.316424
  3 P  5.44249300E-01  0.744308
 
  4 S  1.68714400E-01  1.000000
 
  5 P  1.68714400E-01  1.000000
 
  6 S  4.38000000E-02  1.000000
 
  7 P  4.38000000E-02  1.000000
 
  8 D  8.00000000E-01  1.000000
 
  H (Hydrogen)
  ------------
            Exponent  Coefficients 
       -------------- ---------------------------------------------------------
  1 S  1.87311370E+01  0.033495
  1 S  2.82539370E+00  0.234727
  1 S  6.40121700E-01  0.813757
 
  2 S  1.61277800E-01  1.000000
 
  3 S  3.60000000E-02  1.000000
 
  4 P  1.10000000E+00  1.000000
 
  O (Oxygen)
  ----------
            Exponent  Coefficients 
       -------------- ---------------------------------------------------------
  1 S  5.48467170E+03  0.001831
  1 S  8.25234950E+02  0.013950
  1 S  1.88046960E+02  0.068445
  1 S  5.29645000E+01  0.232714
  1 S  1.68975700E+01  0.470193
  1 S  5.79963530E+00  0.358521
 
  2 S  1.55396160E+01 -0.110778
  2 S  3.59993360E+00 -0.148026
  2 S  1.01376180E+00  1.130767
 
  3 P  1.55396160E+01  0.070874
  3 P  3.59993360E+00  0.339753
  3 P  1.01376180E+00  0.727159
 
  4 S  2.70005800E-01  1.000000
 
  5 P  2.70005800E-01  1.000000
 
  6 S  8.45000000E-02  1.000000
 
  7 P  8.45000000E-02  1.000000
 
  8 D  8.00000000E-01  1.000000
 
  Na (Sodium)
  -----------
            Exponent  Coefficients 
       -------------- ---------------------------------------------------------
  1 S  9.99320000E+03  0.001938
  1 S  1.49989000E+03  0.014807
  1 S  3.41951000E+02  0.072706
  1 S  9.46797000E+01  0.252629
  1 S  2.97345000E+01  0.493242
  1 S  1.00063000E+01  0.313169
 
  2 S  1.50963000E+02 -0.003542
  2 S  3.55878000E+01 -0.043959
  2 S  1.11683000E+01 -0.109752
  2 S  3.90201000E+00  0.187398
  2 S  1.38177000E+00  0.646699
  2 S  4.66382000E-01  0.306058
 
  3 P  1.50963000E+02  0.005002
  3 P  3.55878000E+01  0.035511
  3 P  1.11683000E+01  0.142825
  3 P  3.90201000E+00  0.338620
  3 P  1.38177000E+00  0.451579
  3 P  4.66382000E-01  0.273271
 
  4 S  4.97966000E-01 -0.248503
  4 S  8.43530000E-02 -0.131704
  4 S  6.66350000E-02  1.233520
 
  5 P  4.97966000E-01 -0.023023
  5 P  8.43530000E-02  0.950359
  5 P  6.66350000E-02  0.059858
 
  6 S  2.59544000E-02  1.000000
 
  7 P  2.59544000E-02  1.000000
 
  8 S  7.60000000E-03  1.000000
 
  9 P  7.60000000E-03  1.000000
 
 10 D  1.75000000E-01  1.000000
 


 Summary of "ao basis" -> "ao basis" (cartesian)
 ------------------------------------------------------------------------------
       Tag                 Description            Shells   Functions and Types
 ---------------- ------------------------------  ------  ---------------------
 C                         6-31++G**                 8       19   4s3p1d
 H                         6-31++G**                 4        6   3s1p
 O                         6-31++G**                 8       19   4s3p1d
 Na                        6-31++G**                10       23   5s4p1d




 Summary of "ao basis" -> "ao basis" (cartesian)
 ------------------------------------------------------------------------------
       Tag                 Description            Shells   Functions and Types
 ---------------- ------------------------------  ------  ---------------------
 C                         6-31++G**                 8       19   4s3p1d
 H                         6-31++G**                 4        6   3s1p
 O                         6-31++G**                 8       19   4s3p1d
 Na                        6-31++G**                10       23   5s4p1d


  int_init: cando_txs set to always be  F
  Caching 1-el integrals 
 
            General Information
            -------------------
          SCF calculation type: DFT
          Wavefunction type:  closed shell.
          No. of atoms     :    49
          No. of electrons :   192
           Alpha electrons :    96
            Beta electrons :    96
          Charge           :    -1
          Spin multiplicity:     1
          Use of symmetry is: off; symmetry adaption is: off
          Maximum number of iterations: 500
          This is a Direct SCF calculation.
          AO basis - number of functions:   571
                     number of shells:   282
          Convergence on energy requested: 1.00D-06
          Convergence on density requested: 1.00D-05
          Convergence on gradient requested: 5.00D-04
 
              XC Information
              --------------
                     Hartree-Fock (Exact) Exchange  1.000          
                     LC-wPBE(h)Exchange Functional  1.000          
            Perdew 1991 LDA Correlation Functional  1.000 local    
           PerdewBurkeErnz. Correlation Functional  1.000 non-local
 
           Range-Separation Parameters        
           ---------------------------
           Alpha           :  0.00
           Beta            :  1.00
           Gamma           :  0.23
           Short-Range HF  :     F
 
             Grid Information
             ----------------
          Grid used for XC integration:  medium    
          Radial quadrature: Mura-Knowles        
          Angular quadrature: Lebedev. 
          Tag              B.-S. Rad. Rad. Pts. Rad. Cut. Ang. Pts.
          ---              ---------- --------- --------- ---------
          C                   0.70       49          21.0       434
          H                   0.35       45          23.0       434
          O                   0.60       49          23.0       434
          Na                  1.80       88          19.0       434
          Grid pruning is: on 
          Number of quadrature shells:  2328
          Spatial weights used:  Erf1
 
          Convergence Information
          -----------------------
          Convergence aids based upon iterative change in 
          total energy or number of iterations. 
          Levelshifting, if invoked, occurs when the 
          HOMO/LUMO gap drops below (HL_TOL): 1.00D-02
          DIIS, if invoked, will attempt to extrapolate 
          using up to (NFOCK): 10 stored Fock matrices.

                    Damping( 0%)  Levelshifting(0.5)       DIIS
                  --------------- ------------------- ---------------
          dE  on:    start            ASAP                start   
          dE off:    2 iters        500 iters           500 iters 

 
      Screening Tolerance Information
      -------------------------------
          Density screening/tol_rho: 1.00D-10
          AO Gaussian exp screening on grid/accAOfunc:  14
          CD Gaussian exp screening on grid/accCDfunc:  20
          XC Gaussian exp screening on grid/accXCfunc:  20
          Schwarz screening/accCoul: 1.00D-08

 
 WARNING : Found     1 linear dependencies 
 S eigenvalue threshold:     1.00000E-05
 Smallest S eigenvalue :     7.49620E-06
 Largest  S eigenvalue :     7.49620E-06
 

 !! The overlap matrix has   1 vectors deemed linearly dependent with
    eigenvalues:
 7.50D-06
 
 
      Superposition of Atomic Density Guess
      -------------------------------------
 
 Sum of atomic energies:       -1522.56967379

 Renormalizing density from     191.00 to    192
 
      Non-variational initial energy
      ------------------------------

 Total energy =   -1534.394343
 1-e energy   =   -6904.387901
 2-e energy   =    2974.925154
 HOMO         =      -0.186091
 LUMO         =       0.068627
 
   Time after variat. SCF:     19.1
   Time prior to 1st pass:     19.1

 Grid_pts file          = /scratch/mol.gridpts.000
 Record size in doubles =  12289        No. of grid_pts per rec  =   3070
 Max. records in memory =      4        Max. recs in file   =    304158

 Grid integrated density:     191.999351922037
 Requested integration accuracy:   0.10E-05

           Memory utilization after 1st SCF pass: 
           Heap Space remaining (MW):       65.48            65479382
          Stack Space remaining (MW):       65.53            65530260

   convergence    iter        energy       DeltaE   RMS-Dens  Diis-err    time
 ---------------- ----- ----------------- --------- --------- ---------  ------
 d= 0,ls=0.0,diis     1  -1533.6953040288 -3.93D+03  1.35D-02  5.91D+00    57.7
 d= 0,ls=0.0,diis     2  -1533.8156768756 -1.20D-01  6.69D-03  6.26D+00    97.1
 d= 0,ls=0.0,diis     3  -1534.3421470413 -5.26D-01  1.70D-03  1.85D-01   136.4
 d= 0,ls=0.0,diis     4  -1534.3570561299 -1.49D-02  5.85D-04  3.42D-02   175.8
 d= 0,ls=0.0,diis     5  -1534.3599441266 -2.89D-03  9.97D-04  1.97D-03   215.3
  Resetting Diis
 d= 0,ls=0.0,diis     6  -1534.3601298228 -1.86D-04  4.65D-04  1.10D-04   254.8
 d= 0,ls=0.0,diis     7  -1534.3601408517 -1.10D-05  1.16D-04  4.38D-05   294.0
 d= 0,ls=0.0,diis     8  -1534.3601355053  5.35D-06  1.83D-05  1.13D-04   333.5
 d= 0,ls=0.0,diis     9  -1534.3601453483 -9.84D-06  7.77D-06  8.37D-07   373.1
 d= 0,ls=0.0,diis    10  -1534.3601454450 -9.67D-08  6.85D-06  1.62D-07   412.7


         Total DFT energy =    -1534.360145444967
      One electron energy =    -6910.501898548549
           Coulomb energy =     3163.854762346667
    Exchange-Corr. energy =     -182.781413034583
 Nuclear repulsion energy =     2395.068403791498

 Numeric. integr. density =      192.000009671161

     Total iterative time =    393.6s


 
                       DFT Final Molecular Orbital Analysis
                       ------------------------------------
 
 Vector   22  Occ=2.000000D+00  E=-2.062028D+00
              MO Center=  1.9D+00,  8.8D-01, -1.5D+00, r^2= 2.1D-01
   Bfn.  Coefficient  Atom+Function         Bfn.  Coefficient  Atom+Function  
  ----- ------------  ---------------      ----- ------------  ---------------
   178      1.009803  13 Na s               177     -0.245610  13 Na s         
 
 Vector   23  Occ=2.000000D+00  E=-1.037230D+00
              MO Center=  1.9D+00,  8.8D-01, -1.4D+00, r^2= 3.5D-01
   Bfn.  Coefficient  Atom+Function         Bfn.  Coefficient  Atom+Function  
  ----- ------------  ---------------      ----- ------------  ---------------
   181      0.597148  13 Na pz              180      0.569139  13 Na py        
   179     -0.533877  13 Na px        
 
 Vector   24  Occ=2.000000D+00  E=-1.036021D+00
              MO Center=  1.9D+00,  8.8D-01, -1.5D+00, r^2= 3.7D-01
   Bfn.  Coefficient  Atom+Function         Bfn.  Coefficient  Atom+Function  
  ----- ------------  ---------------      ----- ------------  ---------------
   181      0.750022  13 Na pz              179      0.588954  13 Na px        
   180     -0.225049  13 Na py        
 
 Vector   25  Occ=2.000000D+00  E=-1.035202D+00
              MO Center=  1.9D+00,  8.7D-01, -1.5D+00, r^2= 3.1D-01
   Bfn.  Coefficient  Atom+Function         Bfn.  Coefficient  Atom+Function  
  ----- ------------  ---------------      ----- ------------  ---------------
   180      0.770733  13 Na py              179      0.576808  13 Na px        
   181     -0.221613  13 Na pz        
 
 Vector   26  Occ=2.000000D+00  E=-1.018737D+00
              MO Center= -8.4D-01, -1.7D-01,  1.2D+00, r^2= 4.3D+00
   Bfn.  Coefficient  Atom+Function         Bfn.  Coefficient  Atom+Function  
  ----- ------------  ---------------      ----- ------------  ---------------
    72      0.222978   7 C  s               106      0.218356   9 O  s         
    87      0.214175   8 O  s               144      0.212840  11 O  s         
   163      0.204135  12 O  s                83      0.192730   8 O  s         
   102      0.193567   9 O  s               140      0.191537  11 O  s         
    64      0.184635   7 C  s               159      0.181052  12 O  s         
 
 Vector   27  Occ=2.000000D+00  E=-1.014531D+00
              MO Center= -8.0D-01, -2.8D-01,  1.2D+00, r^2= 4.3D+00
   Bfn.  Coefficient  Atom+Function         Bfn.  Coefficient  Atom+Function  
  ----- ------------  ---------------      ----- ------------  ---------------
    72      0.343763   7 C  s               144     -0.221330  11 O  s         
   106      0.218981   9 O  s               163     -0.216280  12 O  s         
    87      0.211067   8 O  s                41     -0.209111   4 C  s         
   140     -0.200372  11 O  s               159     -0.193773  12 O  s         
    83      0.190779   8 O  s               102      0.190813   9 O  s         
 
 Vector   28  Occ=2.000000D+00  E=-9.760594D-01
              MO Center=  3.4D+00, -5.4D-01, -1.3D+00, r^2= 2.9D+00
   Bfn.  Coefficient  Atom+Function         Bfn.  Coefficient  Atom+Function  
  ----- ------------  ---------------      ----- ------------  ---------------
   453      0.399673  38 O  s               449      0.395016  38 O  s         
   329      0.218505  26 O  s               325      0.199747  26 O  s         
   448     -0.182175  38 O  s         
 
 Vector   29  Occ=2.000000D+00  E=-9.700816D-01
              MO Center= -1.8D+00, -1.7D+00, -1.9D+00, r^2= 7.2D+00
   Bfn.  Coefficient  Atom+Function         Bfn.  Coefficient  Atom+Function  
  ----- ------------  ---------------      ----- ------------  ---------------
   360      0.333493  29 O  s               356      0.326117  29 O  s         
   267      0.208794  20 O  s               263      0.188692  20 O  s         
   205      0.175586  14 O  s               201      0.162306  14 O  s         
   355     -0.151009  29 O  s         
 
 Vector   30  Occ=2.000000D+00  E=-9.669720D-01
              MO Center=  1.2D+00,  2.3D+00,  9.5D-01, r^2= 5.9D+00
   Bfn.  Coefficient  Atom+Function         Bfn.  Coefficient  Atom+Function  
  ----- ------------  ---------------      ----- ------------  ---------------
   422      0.324107  35 O  s               418      0.297823  35 O  s         
   546      0.276570  47 O  s               542      0.267847  47 O  s         
 
 Vector   31  Occ=2.000000D+00  E=-9.619462D-01
              MO Center=  7.9D-01, -1.3D+00, -1.2D+00, r^2= 7.5D+00
   Bfn.  Coefficient  Atom+Function         Bfn.  Coefficient  Atom+Function  
  ----- ------------  ---------------      ----- ------------  ---------------
   329      0.328398  26 O  s               325      0.308065  26 O  s         
   449     -0.188213  38 O  s               453     -0.188384  38 O  s         
   356     -0.163659  29 O  s               360     -0.164239  29 O  s         
   267      0.151420  20 O  s         
 
 Vector   32  Occ=2.000000D+00  E=-9.586573D-01
              MO Center=  1.0D+00,  2.7D+00,  1.2D+00, r^2= 5.6D+00
   Bfn.  Coefficient  Atom+Function         Bfn.  Coefficient  Atom+Function  
  ----- ------------  ---------------      ----- ------------  ---------------
   542      0.321190  47 O  s               546      0.320420  47 O  s         
   422     -0.228487  35 O  s               418     -0.214779  35 O  s         
   484     -0.187920  41 O  s               480     -0.177791  41 O  s         
 
 Vector   33  Occ=2.000000D+00  E=-9.546670D-01
              MO Center=  8.3D-02, -3.0D-01, -1.4D+00, r^2= 6.0D+00
   Bfn.  Coefficient  Atom+Function         Bfn.  Coefficient  Atom+Function  
  ----- ------------  ---------------      ----- ------------  ---------------
   515      0.340826  44 O  s               511      0.318255  44 O  s         
   329     -0.228242  26 O  s               325     -0.216597  26 O  s         
 
 Vector   34  Occ=2.000000D+00  E=-9.501128D-01
              MO Center= -1.8D+00, -1.0D+00, -9.7D-01, r^2= 6.3D+00
   Bfn.  Coefficient  Atom+Function         Bfn.  Coefficient  Atom+Function  
  ----- ------------  ---------------      ----- ------------  ---------------
   205      0.355874  14 O  s               201      0.335336  14 O  s         
   267     -0.245924  20 O  s               263     -0.221548  20 O  s         
   200     -0.155785  14 O  s         
 
 Vector   35  Occ=2.000000D+00  E=-9.478321D-01
              MO Center= -6.5D-01,  4.2D-01, -1.2D+00, r^2= 1.2D+01
   Bfn.  Coefficient  Atom+Function         Bfn.  Coefficient  Atom+Function  
  ----- ------------  ---------------      ----- ------------  ---------------
   391      0.232733  32 O  s               387      0.229355  32 O  s         
   205     -0.187994  14 O  s               298      0.185986  23 O  s         
   267     -0.179324  20 O  s               201     -0.175358  14 O  s         
   294      0.171910  23 O  s               356      0.172039  29 O  s         
   360      0.171962  29 O  s               263     -0.163129  20 O  s         
 
 Vector   36  Occ=2.000000D+00  E=-9.445854D-01
              MO Center=  7.0D-01,  1.2D+00,  1.5D-02, r^2= 9.3D+00
   Bfn.  Coefficient  Atom+Function         Bfn.  Coefficient  Atom+Function  
  ----- ------------  ---------------      ----- ------------  ---------------
   484      0.249882  41 O  s               480      0.239716  41 O  s         
   515      0.204937  44 O  s               391     -0.197642  32 O  s         
   387     -0.192132  32 O  s               511      0.190423  44 O  s         
   298     -0.170953  23 O  s               422     -0.170945  35 O  s         
   418     -0.162858  35 O  s               294     -0.159200  23 O  s         
 
 Vector   37  Occ=2.000000D+00  E=-9.432607D-01
              MO Center=  3.0D-01, -7.5D-02,  2.4D-01, r^2= 1.1D+01
   Bfn.  Coefficient  Atom+Function         Bfn.  Coefficient  Atom+Function  
  ----- ------------  ---------------      ----- ------------  ---------------
   484      0.291100  41 O  s               480      0.281280  41 O  s         
   267      0.212052  20 O  s               263      0.191658  20 O  s         
   515     -0.187156  44 O  s               511     -0.170874  44 O  s         
 
 Vector   38  Occ=2.000000D+00  E=-9.335640D-01
              MO Center=  9.1D-03,  2.9D+00, -1.4D+00, r^2= 3.8D+00
   Bfn.  Coefficient  Atom+Function         Bfn.  Coefficient  Atom+Function  
  ----- ------------  ---------------      ----- ------------  ---------------
   298      0.332657  23 O  s               294      0.316220  23 O  s         
   391     -0.302853  32 O  s               387     -0.296372  32 O  s         
 
 Vector   39  Occ=2.000000D+00  E=-9.301926D-01
              MO Center=  7.3D-01, -4.1D+00,  2.8D-01, r^2= 1.6D+00
   Bfn.  Coefficient  Atom+Function         Bfn.  Coefficient  Atom+Function  
  ----- ------------  ---------------      ----- ------------  ---------------
   232      0.440319  17 O  s               236      0.440429  17 O  s         
   231     -0.202169  17 O  s         
 
 Vector   40  Occ=2.000000D+00  E=-9.236656D-01
              MO Center= -9.5D-01,  1.3D+00,  7.8D-01, r^2= 4.2D+00
   Bfn.  Coefficient  Atom+Function         Bfn.  Coefficient  Atom+Function  
  ----- ------------  ---------------      ----- ------------  ---------------
   106     -0.335252   9 O  s                87      0.328773   8 O  s         
   102     -0.287805   9 O  s                83      0.279797   8 O  s         
    10     -0.211254   1 C  s                67      0.180008   7 C  pz        
 
 Vector   41  Occ=2.000000D+00  E=-9.217965D-01
              MO Center= -4.3D-01, -1.7D+00,  1.0D+00, r^2= 4.2D+00
   Bfn.  Coefficient  Atom+Function         Bfn.  Coefficient  Atom+Function  
  ----- ------------  ---------------      ----- ------------  ---------------
   163     -0.325333  12 O  s               144      0.314865  11 O  s         
   159     -0.282736  12 O  s               140      0.272263  11 O  s         
   122     -0.204776  10 C  px        
 
 Vector   42  Occ=2.000000D+00  E=-7.624214D-01
              MO Center= -1.6D+00, -3.5D-01,  2.3D+00, r^2= 1.9D+00
   Bfn.  Coefficient  Atom+Function         Bfn.  Coefficient  Atom+Function  
  ----- ------------  ---------------      ----- ------------  ---------------
    33      0.260526   4 C  s                 2      0.258824   1 C  s         
     6      0.248704   1 C  s                37      0.248392   4 C  s         
 
 Vector   43  Occ=2.000000D+00  E=-6.499283D-01
              MO Center= -1.5D+00, -3.3D-01,  2.2D+00, r^2= 3.1D+00
   Bfn.  Coefficient  Atom+Function         Bfn.  Coefficient  Atom+Function  
  ----- ------------  ---------------      ----- ------------  ---------------
     6      0.251985   1 C  s                37     -0.247713   4 C  s         
     2      0.220924   1 C  s                33     -0.220015   4 C  s         
    10      0.172453   1 C  s                72     -0.155429   7 C  s         
 
 Vector   44  Occ=2.000000D+00  E=-5.386146D-01
              MO Center= -7.4D-01, -4.2D-01,  9.8D-01, r^2= 7.5D+00
   Bfn.  Coefficient  Atom+Function         Bfn.  Coefficient  Atom+Function  
  ----- ------------  ---------------      ----- ------------  ---------------
    10      0.245081   1 C  s               125     -0.192057  10 C  s         
    68     -0.186350   7 C  s               121     -0.186357  10 C  s         
    72     -0.172490   7 C  s                64     -0.171269   7 C  s         
   144      0.163333  11 O  s               163      0.155846  12 O  s         
   106      0.152392   9 O  s         
 
 Vector   45  Occ=2.000000D+00  E=-5.262997D-01
              MO Center=  2.6D+00, -1.7D-01, -8.5D-01, r^2= 8.6D+00
   Bfn.  Coefficient  Atom+Function         Bfn.  Coefficient  Atom+Function  
  ----- ------------  ---------------      ----- ------------  ---------------
   450      0.324420  38 O  px              451      0.250326  38 O  py        
   467      0.199126  39 H  s               473     -0.196661  40 H  s         
   454      0.161055  38 O  px        
 
 Vector   46  Occ=2.000000D+00  E=-5.229040D-01
              MO Center=  4.8D-02, -4.8D-01,  2.3D-02, r^2= 1.2D+01
   Bfn.  Coefficient  Atom+Function         Bfn.  Coefficient  Atom+Function  
  ----- ------------  ---------------      ----- ------------  ---------------
   450      0.193024  38 O  px              203      0.173985  14 O  py        
 
 Vector   47  Occ=2.000000D+00  E=-5.166386D-01
              MO Center=  8.2D-03, -2.0D+00, -1.1D+00, r^2= 6.1D+00
   Bfn.  Coefficient  Atom+Function         Bfn.  Coefficient  Atom+Function  
  ----- ------------  ---------------      ----- ------------  ---------------
   328      0.295055  26 O  pz              266     -0.242009  20 O  pz        
   332      0.155520  26 O  pz              349     -0.153328  28 H  s         
   358      0.151366  29 O  py        
 
 Vector   48  Occ=2.000000D+00  E=-5.108784D-01
              MO Center= -1.4D+00, -6.8D-01, -1.2D+00, r^2= 1.1D+01
   Bfn.  Coefficient  Atom+Function         Bfn.  Coefficient  Atom+Function  
  ----- ------------  ---------------      ----- ------------  ---------------
   358      0.276990  29 O  py              513     -0.177263  44 O  py        
   374     -0.159420  30 H  s               380      0.151950  31 H  s         
 
 Vector   49  Occ=2.000000D+00  E=-5.047721D-01
              MO Center= -1.0D+00, -2.2D-01, -1.2D+00, r^2= 1.0D+01
   Bfn.  Coefficient  Atom+Function         Bfn.  Coefficient  Atom+Function  
  ----- ------------  ---------------      ----- ------------  ---------------
   513      0.237733  44 O  py              358      0.235637  29 O  py        
 
 Vector   50  Occ=2.000000D+00  E=-4.980675D-01
              MO Center=  1.2D+00,  2.0D+00,  9.5D-01, r^2= 4.9D+00
   Bfn.  Coefficient  Atom+Function         Bfn.  Coefficient  Atom+Function  
  ----- ------------  ---------------      ----- ------------  ---------------
   419      0.336995  35 O  px              543     -0.210726  47 O  px        
   442      0.186350  37 H  s               420     -0.184706  35 O  py        
   436     -0.180767  36 H  s               423      0.175312  35 O  px        
 
 Vector   51  Occ=2.000000D+00  E=-4.951776D-01
              MO Center= -3.9D-01,  1.5D+00,  5.9D-01, r^2= 1.1D+01
   Bfn.  Coefficient  Atom+Function         Bfn.  Coefficient  Atom+Function  
  ----- ------------  ---------------      ----- ------------  ---------------
   543      0.304908  47 O  px              513     -0.182267  44 O  py        
   203      0.155769  14 O  py              547      0.155235  47 O  px        
   566      0.154046  49 H  s         
 
 Vector   52  Occ=2.000000D+00  E=-4.921255D-01
              MO Center=  3.8D-01, -2.6D-01,  5.9D-01, r^2= 1.0D+01
   Bfn.  Coefficient  Atom+Function         Bfn.  Coefficient  Atom+Function  
  ----- ------------  ---------------      ----- ------------  ---------------
   482      0.269788  41 O  py              328      0.225907  26 O  pz        
   266      0.174127  20 O  pz        
 
 Vector   53  Occ=2.000000D+00  E=-4.894340D-01
              MO Center= -6.3D-01, -2.0D-01,  6.5D-01, r^2= 1.2D+01
   Bfn.  Coefficient  Atom+Function         Bfn.  Coefficient  Atom+Function  
  ----- ------------  ---------------      ----- ------------  ---------------
   482     -0.286819  41 O  py              203      0.269998  14 O  py        
    72     -0.152260   7 C  s         
 
 Vector   54  Occ=2.000000D+00  E=-4.839560D-01
              MO Center=  6.0D-01,  2.5D+00, -2.3D+00, r^2= 3.4D+00
   Bfn.  Coefficient  Atom+Function         Bfn.  Coefficient  Atom+Function  
  ----- ------------  ---------------      ----- ------------  ---------------
   389      0.357287  32 O  py              390      0.285790  32 O  pz        
   411      0.214109  34 H  s               405     -0.211384  33 H  s         
   393      0.183319  32 O  py        
 
 Vector   55  Occ=2.000000D+00  E=-4.816409D-01
              MO Center= -1.5D-01,  1.5D+00, -7.6D-01, r^2= 9.8D+00
   Bfn.  Coefficient  Atom+Function         Bfn.  Coefficient  Atom+Function  
  ----- ------------  ---------------      ----- ------------  ---------------
   296      0.272520  23 O  py              295      0.233821  23 O  px        
   318     -0.174919  25 H  s               312      0.157096  24 H  s         
   328     -0.157398  26 O  pz        
 
 Vector   56  Occ=2.000000D+00  E=-4.729561D-01
              MO Center= -8.1D-02, -6.6D-01,  9.7D-01, r^2= 1.3D+01
   Bfn.  Coefficient  Atom+Function         Bfn.  Coefficient  Atom+Function  
  ----- ------------  ---------------      ----- ------------  ---------------
   235      0.259684  17 O  pz        
 
 Vector   57  Occ=2.000000D+00  E=-4.680056D-01
              MO Center= -1.3D-01, -2.7D+00,  5.8D-01, r^2= 8.2D+00
   Bfn.  Coefficient  Atom+Function         Bfn.  Coefficient  Atom+Function  
  ----- ------------  ---------------      ----- ------------  ---------------
   235      0.334828  17 O  pz              250      0.173145  18 H  s         
   266      0.171982  20 O  pz              256     -0.167123  19 H  s         
   239      0.165989  17 O  pz        
 
 Vector   58  Occ=2.000000D+00  E=-4.648435D-01
              MO Center= -8.7D-01, -2.6D-01,  1.0D+00, r^2= 7.3D+00
   Bfn.  Coefficient  Atom+Function         Bfn.  Coefficient  Atom+Function  
  ----- ------------  ---------------      ----- ------------  ---------------
    72      0.272598   7 C  s                66     -0.179028   7 C  py        
    10     -0.174307   1 C  s               105     -0.160444   9 O  pz        
   123      0.158625  10 C  py        
 
 Vector   59  Occ=2.000000D+00  E=-4.485767D-01
              MO Center= -6.0D-01, -4.6D-01,  1.1D+00, r^2= 8.3D+00
   Bfn.  Coefficient  Atom+Function         Bfn.  Coefficient  Atom+Function  
  ----- ------------  ---------------      ----- ------------  ---------------
   163      0.247820  12 O  s               160      0.225681  12 O  px        
   106     -0.194800   9 O  s                72     -0.164876   7 C  s         
   105      0.152348   9 O  pz        
 
 Vector   60  Occ=2.000000D+00  E=-4.410338D-01
              MO Center= -1.1D+00, -5.5D-01,  1.1D+00, r^2= 6.3D+00
   Bfn.  Coefficient  Atom+Function         Bfn.  Coefficient  Atom+Function  
  ----- ------------  ---------------      ----- ------------  ---------------
   124     -0.239424  10 C  pz               10      0.219072   1 C  s         
    72     -0.218949   7 C  s                65      0.190678   7 C  px        
    35      0.176768   4 C  py              144     -0.170330  11 O  s         
   141      0.165997  11 O  px              162     -0.163517  12 O  pz        
 
 Vector   61  Occ=2.000000D+00  E=-4.266357D-01
              MO Center= -6.9D-01, -7.4D-01,  6.6D-01, r^2= 7.6D+00
   Bfn.  Coefficient  Atom+Function         Bfn.  Coefficient  Atom+Function  
  ----- ------------  ---------------      ----- ------------  ---------------
    72      0.467169   7 C  s                10     -0.326551   1 C  s         
   160      0.221880  12 O  px              122     -0.214296  10 C  px        
    41     -0.209490   4 C  s               143      0.193993  11 O  pz        
    67      0.168782   7 C  pz              163      0.163933  12 O  s         
    86      0.156864   8 O  pz              264      0.152690  20 O  px        
 
 Vector   62  Occ=2.000000D+00  E=-4.217010D-01
              MO Center= -5.4D-01,  9.0D-01,  1.1D+00, r^2= 6.9D+00
   Bfn.  Coefficient  Atom+Function         Bfn.  Coefficient  Atom+Function  
  ----- ------------  ---------------      ----- ------------  ---------------
    84      0.248781   8 O  px              105      0.220824   9 O  pz        
    87      0.191563   8 O  s                65     -0.178871   7 C  px        
    67     -0.164147   7 C  pz        
 
 Vector   63  Occ=2.000000D+00  E=-4.068694D-01
              MO Center= -8.3D-01, -2.8D-01,  1.3D+00, r^2= 6.3D+00
   Bfn.  Coefficient  Atom+Function         Bfn.  Coefficient  Atom+Function  
  ----- ------------  ---------------      ----- ------------  ---------------
   123      0.232036  10 C  py               66      0.222939   7 C  py        
   161      0.180058  12 O  py              104      0.164659   9 O  py        
 
 Vector   64  Occ=2.000000D+00  E=-3.975249D-01
              MO Center=  7.5D-01, -9.7D-01, -5.5D-01, r^2= 1.1D+01
   Bfn.  Coefficient  Atom+Function         Bfn.  Coefficient  Atom+Function  
  ----- ------------  ---------------      ----- ------------  ---------------
   326      0.240617  26 O  px              452      0.237570  38 O  pz        
   453     -0.176197  38 O  s                10     -0.158564   1 C  s         
   330      0.155522  26 O  px        
 
 Vector   65  Occ=2.000000D+00  E=-3.902458D-01
              MO Center=  4.7D-01,  1.5D-01,  3.5D-01, r^2= 1.0D+01
   Bfn.  Coefficient  Atom+Function         Bfn.  Coefficient  Atom+Function  
  ----- ------------  ---------------      ----- ------------  ---------------
    72      0.223418   7 C  s               421     -0.214525  35 O  pz        
    41     -0.160312   4 C  s               422      0.159964  35 O  s         
   452      0.158768  38 O  pz              124     -0.156069  10 C  pz        
 
 Vector   66  Occ=2.000000D+00  E=-3.817510D-01
              MO Center=  1.0D-01,  4.6D-01, -9.9D-01, r^2= 1.1D+01
   Bfn.  Coefficient  Atom+Function         Bfn.  Coefficient  Atom+Function  
  ----- ------------  ---------------      ----- ------------  ---------------
   421      0.167440  35 O  pz              514      0.162612  44 O  pz        
   512     -0.154568  44 O  px              388      0.152056  32 O  px        
 
 Vector   67  Occ=2.000000D+00  E=-3.797706D-01
              MO Center= -2.1D-02,  9.2D-01, -1.0D+00, r^2= 1.0D+01
   Bfn.  Coefficient  Atom+Function         Bfn.  Coefficient  Atom+Function  
  ----- ------------  ---------------      ----- ------------  ---------------
    72      0.254952   7 C  s               388     -0.192732  32 O  px        
   421      0.189047  35 O  pz              419     -0.167657  35 O  px        
   514     -0.168400  44 O  pz              357      0.159166  29 O  px        
 
 Vector   68  Occ=2.000000D+00  E=-3.757413D-01
              MO Center= -3.9D-01, -1.6D-01,  3.7D-01, r^2= 1.3D+01
   Bfn.  Coefficient  Atom+Function         Bfn.  Coefficient  Atom+Function  
  ----- ------------  ---------------      ----- ------------  ---------------
    72      0.215244   7 C  s               264     -0.205444  20 O  px        
   481      0.188468  41 O  px        
 
 Vector   69  Occ=2.000000D+00  E=-3.724324D-01
              MO Center=  1.9D-01, -8.1D-01, -7.9D-01, r^2= 1.3D+01
   Bfn.  Coefficient  Atom+Function         Bfn.  Coefficient  Atom+Function  
  ----- ------------  ---------------      ----- ------------  ---------------
   264      0.208066  20 O  px              452      0.197548  38 O  pz        
   357     -0.194359  29 O  px               72      0.175029   7 C  s         
   266     -0.166459  20 O  pz        
 
 Vector   70  Occ=2.000000D+00  E=-3.681916D-01
              MO Center=  1.2D-01,  2.3D+00,  1.1D+00, r^2= 1.0D+01
   Bfn.  Coefficient  Atom+Function         Bfn.  Coefficient  Atom+Function  
  ----- ------------  ---------------      ----- ------------  ---------------
   544      0.367591  47 O  py               10      0.260619   1 C  s         
   548      0.220476  47 O  py              546      0.209651  47 O  s         
    73      0.158292   7 C  px        
 
 Vector   71  Occ=2.000000D+00  E=-3.664458D-01
              MO Center= -2.4D-01,  2.0D-01, -5.7D-01, r^2= 1.2D+01
   Bfn.  Coefficient  Atom+Function         Bfn.  Coefficient  Atom+Function  
  ----- ------------  ---------------      ----- ------------  ---------------
    10      0.430718   1 C  s                72     -0.369041   7 C  s         
   129     -0.313746  10 C  s               297      0.221776  23 O  pz        
   264      0.172826  20 O  px        
 
 Vector   72  Occ=2.000000D+00  E=-3.561570D-01
              MO Center=  1.0D+00, -6.4D-01, -9.6D-01, r^2= 1.2D+01
   Bfn.  Coefficient  Atom+Function         Bfn.  Coefficient  Atom+Function  
  ----- ------------  ---------------      ----- ------------  ---------------
   451      0.229462  38 O  py              452     -0.219745  38 O  pz        
   327      0.214514  26 O  py              326      0.205171  26 O  px        
 
 Vector   73  Occ=2.000000D+00  E=-3.524091D-01
              MO Center=  4.5D-01,  1.3D+00,  1.5D+00, r^2= 1.0D+01
   Bfn.  Coefficient  Atom+Function         Bfn.  Coefficient  Atom+Function  
  ----- ------------  ---------------      ----- ------------  ---------------
    72     -0.316353   7 C  s                10      0.294688   1 C  s         
   544      0.290517  47 O  py              481      0.264698  41 O  px        
   438      0.202630  36 H  s               548      0.178032  47 O  py        
    41      0.165511   4 C  s               485      0.164635  41 O  px        
 
 Vector   74  Occ=2.000000D+00  E=-3.464040D-01
              MO Center= -8.1D-01, -1.1D-01,  1.1D+00, r^2= 9.8D+00
   Bfn.  Coefficient  Atom+Function         Bfn.  Coefficient  Atom+Function  
  ----- ------------  ---------------      ----- ------------  ---------------
    10      0.347428   1 C  s                72     -0.271366   7 C  s         
   129     -0.185481  10 C  s                35      0.163846   4 C  py        
     5     -0.159400   1 C  pz               34      0.150250   4 C  px        
 
 Vector   75  Occ=2.000000D+00  E=-3.428363D-01
              MO Center= -1.3D+00, -1.3D+00, -4.6D-01, r^2= 1.1D+01
   Bfn.  Coefficient  Atom+Function         Bfn.  Coefficient  Atom+Function  
  ----- ------------  ---------------      ----- ------------  ---------------
   359      0.234225  29 O  pz              202      0.212866  14 O  px        
   264     -0.213393  20 O  px              357     -0.154205  29 O  px        
 
 Vector   76  Occ=2.000000D+00  E=-3.381619D-01
              MO Center=  2.9D-01,  1.2D+00, -6.9D-01, r^2= 1.4D+01
   Bfn.  Coefficient  Atom+Function         Bfn.  Coefficient  Atom+Function  
  ----- ------------  ---------------      ----- ------------  ---------------
   388      0.297042  32 O  px              297     -0.232388  23 O  pz        
   234      0.187622  17 O  py              392      0.184307  32 O  px        
   298      0.169618  23 O  s         
 
 Vector   77  Occ=2.000000D+00  E=-3.358502D-01
              MO Center= -6.4D-01,  3.8D-01,  5.0D-01, r^2= 1.3D+01
   Bfn.  Coefficient  Atom+Function         Bfn.  Coefficient  Atom+Function  
  ----- ------------  ---------------      ----- ------------  ---------------
   481     -0.228197  41 O  px              202      0.214496  14 O  px        
   388     -0.203032  32 O  px              438     -0.190236  36 H  s         
     3      0.157067   1 C  px               34     -0.157480   4 C  px        
 
 Vector   78  Occ=2.000000D+00  E=-3.319428D-01
              MO Center=  3.6D-01, -3.0D+00,  2.4D-01, r^2= 9.9D+00
   Bfn.  Coefficient  Atom+Function         Bfn.  Coefficient  Atom+Function  
  ----- ------------  ---------------      ----- ------------  ---------------
   234      0.403375  17 O  py              238      0.241285  17 O  py        
   236     -0.224288  17 O  s               233     -0.156754  17 O  px        
 
 Vector   79  Occ=2.000000D+00  E=-3.141645D-01
              MO Center=  1.8D+00, -4.7D-01, -9.8D-01, r^2= 6.9D+00
   Bfn.  Coefficient  Atom+Function         Bfn.  Coefficient  Atom+Function  
  ----- ------------  ---------------      ----- ------------  ---------------
   326      0.255637  26 O  px              327     -0.250418  26 O  py        
   450      0.199459  38 O  px              330      0.173490  26 O  px        
   420      0.173389  35 O  py              452     -0.171880  38 O  pz        
   512     -0.169912  44 O  px              331     -0.166292  26 O  py        
   514     -0.163596  44 O  pz              451     -0.150577  38 O  py        
 
 Vector   80  Occ=2.000000D+00  E=-3.007267D-01
              MO Center=  3.0D+00, -3.4D-01, -1.5D+00, r^2= 4.7D+00
   Bfn.  Coefficient  Atom+Function         Bfn.  Coefficient  Atom+Function  
  ----- ------------  ---------------      ----- ------------  ---------------
   451     -0.347100  38 O  py              450      0.338783  38 O  px        
   455     -0.229352  38 O  py              454      0.227682  38 O  px        
   327      0.207787  26 O  py              452     -0.207906  38 O  pz        
   512      0.187833  44 O  px              514      0.151801  44 O  pz        
 
 Vector   81  Occ=2.000000D+00  E=-2.935766D-01
              MO Center=  1.7D+00,  1.3D+00,  3.4D-01, r^2= 5.6D+00
   Bfn.  Coefficient  Atom+Function         Bfn.  Coefficient  Atom+Function  
  ----- ------------  ---------------      ----- ------------  ---------------
   420      0.418730  35 O  py              421      0.325848  35 O  pz        
   424      0.287931  35 O  py              425      0.221066  35 O  pz        
 
 Vector   82  Occ=2.000000D+00  E=-2.915848D-01
              MO Center= -1.3D+00, -1.4D+00, -1.7D+00, r^2= 7.9D+00
   Bfn.  Coefficient  Atom+Function         Bfn.  Coefficient  Atom+Function  
  ----- ------------  ---------------      ----- ------------  ---------------
   265      0.300007  20 O  py               10     -0.246830   1 C  s         
   358     -0.225702  29 O  py              204     -0.210266  14 O  pz        
   357      0.208919  29 O  px              269      0.205736  20 O  py        
   202      0.150042  14 O  px              359      0.150704  29 O  pz        
 
 Vector   83  Occ=2.000000D+00  E=-2.877513D-01
              MO Center= -1.4D+00, -1.8D+00, -2.2D+00, r^2= 7.7D+00
   Bfn.  Coefficient  Atom+Function         Bfn.  Coefficient  Atom+Function  
  ----- ------------  ---------------      ----- ------------  ---------------
   265      0.301170  20 O  py              359     -0.287943  29 O  pz        
   357     -0.252111  29 O  px              358      0.226280  29 O  py        
   269      0.207355  20 O  py              363     -0.198344  29 O  pz        
   361     -0.165169  29 O  px               10     -0.161934   1 C  s         
   264     -0.160530  20 O  px               72      0.154210   7 C  s         
 
 Vector   84  Occ=2.000000D+00  E=-2.845102D-01
              MO Center=  1.6D-01,  1.1D+00, -1.0D+00, r^2= 1.1D+01
   Bfn.  Coefficient  Atom+Function         Bfn.  Coefficient  Atom+Function  
  ----- ------------  ---------------      ----- ------------  ---------------
    10      0.291773   1 C  s               545      0.235289  47 O  pz        
   327      0.211157  26 O  py              514     -0.204655  44 O  pz        
    72     -0.192515   7 C  s               389      0.188767  32 O  py        
   129     -0.174772  10 C  s               512     -0.169929  44 O  px        
   549      0.161530  47 O  pz              326     -0.156235  26 O  px        
 
 Vector   85  Occ=2.000000D+00  E=-2.828977D-01
              MO Center=  2.5D-02,  1.9D+00,  2.9D-02, r^2= 1.3D+01
   Bfn.  Coefficient  Atom+Function         Bfn.  Coefficient  Atom+Function  
  ----- ------------  ---------------      ----- ------------  ---------------
   545      0.389047  47 O  pz              549      0.264450  47 O  pz        
    72      0.185424   7 C  s               297      0.184138  23 O  pz        
   327     -0.155429  26 O  py              512      0.155030  44 O  px        
   514      0.153437  44 O  pz              204      0.152487  14 O  pz        
 
 Vector   86  Occ=2.000000D+00  E=-2.808241D-01
              MO Center= -9.4D-01, -4.8D-01, -1.5D-01, r^2= 1.1D+01
   Bfn.  Coefficient  Atom+Function         Bfn.  Coefficient  Atom+Function  
  ----- ------------  ---------------      ----- ------------  ---------------
   204      0.267109  14 O  pz              265      0.266961  20 O  py        
   483     -0.214505  41 O  pz              202     -0.196164  14 O  px        
   269      0.183392  20 O  py              208      0.181687  14 O  pz        
   359      0.155747  29 O  pz        
 
 Vector   87  Occ=2.000000D+00  E=-2.778696D-01
              MO Center=  5.6D-01,  1.6D+00, -1.3D-01, r^2= 1.2D+01
   Bfn.  Coefficient  Atom+Function         Bfn.  Coefficient  Atom+Function  
  ----- ------------  ---------------      ----- ------------  ---------------
   483      0.243790  41 O  pz              545     -0.238761  47 O  pz        
   389      0.216016  32 O  py              390     -0.208243  32 O  pz        
   295     -0.173278  23 O  px               10      0.168953   1 C  s         
   487      0.167731  41 O  pz              420     -0.164148  35 O  py        
   549     -0.160363  47 O  pz        
 
 Vector   88  Occ=2.000000D+00  E=-2.746384D-01
              MO Center= -8.9D-02,  5.3D-01, -6.7D-02, r^2= 1.1D+01
   Bfn.  Coefficient  Atom+Function         Bfn.  Coefficient  Atom+Function  
  ----- ------------  ---------------      ----- ------------  ---------------
   483      0.297035  41 O  pz              512     -0.227979  44 O  px        
   487      0.203528  41 O  pz              202     -0.191572  14 O  px        
   514     -0.179662  44 O  pz              204      0.170899  14 O  pz        
   516     -0.156852  44 O  px        
 
 Vector   89  Occ=2.000000D+00  E=-2.682767D-01
              MO Center= -2.2D-01,  1.5D+00,  5.8D-01, r^2= 7.3D+00
   Bfn.  Coefficient  Atom+Function         Bfn.  Coefficient  Atom+Function  
  ----- ------------  ---------------      ----- ------------  ---------------
    85      0.276127   8 O  py              483     -0.240439  41 O  pz        
   103      0.238080   9 O  px              104     -0.220625   9 O  py        
    84     -0.193256   8 O  px               89      0.193007   8 O  py        
   390     -0.192893  32 O  pz              107      0.165484   9 O  px        
   487     -0.164360  41 O  pz              108     -0.154863   9 O  py        
 
 Vector   90  Occ=2.000000D+00  E=-2.652393D-01
              MO Center= -2.6D-01,  2.2D+00, -7.1D-01, r^2= 7.9D+00
   Bfn.  Coefficient  Atom+Function         Bfn.  Coefficient  Atom+Function  
  ----- ------------  ---------------      ----- ------------  ---------------
   295      0.366714  23 O  px              390     -0.272978  32 O  pz        
   299      0.248282  23 O  px              296     -0.233494  23 O  py        
    10     -0.217882   1 C  s                72      0.188282   7 C  s         
   104      0.175228   9 O  py              394     -0.175941  32 O  pz        
   300     -0.159077  23 O  py               41     -0.151943   4 C  s         
 
 Vector   91  Occ=2.000000D+00  E=-2.645113D-01
              MO Center= -1.1D-01, -1.0D+00,  8.0D-01, r^2= 7.9D+00
   Bfn.  Coefficient  Atom+Function         Bfn.  Coefficient  Atom+Function  
  ----- ------------  ---------------      ----- ------------  ---------------
   142      0.322889  11 O  py              161     -0.276090  12 O  py        
   483     -0.233574  41 O  pz              162      0.229649  12 O  pz        
   146      0.221852  11 O  py              165     -0.192532  12 O  py        
    10      0.174543   1 C  s               166      0.158528  12 O  pz        
   487     -0.157461  41 O  pz        
 
 Vector   92  Occ=2.000000D+00  E=-2.573606D-01
              MO Center= -8.0D-01, -6.2D-01,  9.0D-01, r^2= 8.3D+00
   Bfn.  Coefficient  Atom+Function         Bfn.  Coefficient  Atom+Function  
  ----- ------------  ---------------      ----- ------------  ---------------
   143      0.228314  11 O  pz              141     -0.183278  11 O  px        
    86      0.167628   8 O  pz              147      0.158756  11 O  pz        
 
 Vector   93  Occ=2.000000D+00  E=-2.539866D-01
              MO Center=  7.1D-01, -3.7D+00,  3.7D-01, r^2= 5.2D+00
   Bfn.  Coefficient  Atom+Function         Bfn.  Coefficient  Atom+Function  
  ----- ------------  ---------------      ----- ------------  ---------------
   233      0.521895  17 O  px               10     -0.456173   1 C  s         
    72      0.345423   7 C  s               237      0.346699  17 O  px        
   129      0.194750  10 C  s               235     -0.194484  17 O  pz        
   132      0.170272  10 C  pz               41     -0.158845   4 C  s         
 
 Vector   94  Occ=2.000000D+00  E=-2.472633D-01
              MO Center= -9.5D-01,  1.2D+00,  1.1D+00, r^2= 4.0D+00
   Bfn.  Coefficient  Atom+Function         Bfn.  Coefficient  Atom+Function  
  ----- ------------  ---------------      ----- ------------  ---------------
    86      0.416398   8 O  pz              103      0.337633   9 O  px        
    90      0.285307   8 O  pz              107      0.233273   9 O  px        
   104      0.228625   9 O  py               85     -0.166765   8 O  py        
   108      0.159421   9 O  py        
 
 Vector   95  Occ=2.000000D+00  E=-2.462891D-01
              MO Center= -5.3D-01, -1.7D+00,  1.1D+00, r^2= 4.7D+00
   Bfn.  Coefficient  Atom+Function         Bfn.  Coefficient  Atom+Function  
  ----- ------------  ---------------      ----- ------------  ---------------
   141      0.394583  11 O  px              162      0.301074  12 O  pz        
   145      0.275074  11 O  px              166      0.208468  12 O  pz        
   142     -0.157742  11 O  py              161      0.158233  12 O  py        
 
 Vector   96  Occ=2.000000D+00  E=-2.446346D-01
              MO Center= -7.3D-01, -3.3D-01,  1.2D+00, r^2= 6.5D+00
   Bfn.  Coefficient  Atom+Function         Bfn.  Coefficient  Atom+Function  
  ----- ------------  ---------------      ----- ------------  ---------------
   162      0.273481  12 O  pz              104      0.223810   9 O  py        
   161      0.201406  12 O  py              103      0.195150   9 O  px        
   166      0.193955  12 O  pz               36      0.166019   4 C  pz        
    10      0.159512   1 C  s               143      0.158771  11 O  pz        
   108      0.157008   9 O  py        
 
 Vector   97  Occ=0.000000D+00  E= 7.576509D-02
              MO Center=  6.1D+00,  2.0D+00, -2.7D+00, r^2= 3.8D+01
   Bfn.  Coefficient  Atom+Function         Bfn.  Coefficient  Atom+Function  
  ----- ------------  ---------------      ----- ------------  ---------------
   186      2.367317  13 Na s               191      1.212848  13 Na px        
   187     -1.073867  13 Na px              189      1.046296  13 Na pz        
    72     -0.865200   7 C  s               190      0.801430  13 Na s         
   537     -0.799214  46 H  s               444     -0.686406  37 H  s         
   188     -0.589318  13 Na py              531     -0.546412  45 H  s         
 
 Vector   98  Occ=0.000000D+00  E= 8.221524D-02
              MO Center=  2.9D+00,  1.1D+00, -1.7D+00, r^2= 6.7D+01
   Bfn.  Coefficient  Atom+Function         Bfn.  Coefficient  Atom+Function  
  ----- ------------  ---------------      ----- ------------  ---------------
   438      3.819998  36 H  s               193      1.608134  13 Na pz        
   186     -1.599821  13 Na s               189     -0.850333  13 Na pz        
   506     -0.758795  43 H  s               444     -0.754903  37 H  s         
   568     -0.640260  49 H  s               289     -0.617644  22 H  s         
   190      0.578020  13 Na s               129      0.574098  10 C  s         
 
 Vector   99  Occ=0.000000D+00  E= 8.582918D-02
              MO Center=  3.2D+00,  3.5D-01, -1.9D+00, r^2= 6.6D+01
   Bfn.  Coefficient  Atom+Function         Bfn.  Coefficient  Atom+Function  
  ----- ------------  ---------------      ----- ------------  ---------------
   192      1.592236  13 Na py              289     -1.076073  22 H  s         
   500      0.856190  42 H  s               252      0.843340  18 H  s         
   283      0.731377  21 H  s               345     -0.711537  27 H  s         
   438      0.708826  36 H  s               475      0.700522  40 H  s         
   186      0.615827  13 Na s               130     -0.612189  10 C  px        
 
 Vector  100  Occ=0.000000D+00  E= 8.802371D-02
              MO Center= -2.1D+00,  1.2D+00, -1.8D+00, r^2= 5.4D+01
   Bfn.  Coefficient  Atom+Function         Bfn.  Coefficient  Atom+Function  
  ----- ------------  ---------------      ----- ------------  ---------------
   190      2.419146  13 Na s                72     -2.222574   7 C  s         
    10      2.204215   1 C  s               191     -1.277624  13 Na px        
   320     -1.210765  25 H  s                41      1.120476   4 C  s         
   129     -1.056220  10 C  s               438      1.021531  36 H  s         
   531      0.959979  45 H  s                74      0.864888   7 C  py        
 
 Vector  101  Occ=0.000000D+00  E= 1.164996D-01
              MO Center= -2.5D+00, -7.2D-01,  2.6D+00, r^2= 3.0D+01
   Bfn.  Coefficient  Atom+Function         Bfn.  Coefficient  Atom+Function  
  ----- ------------  ---------------      ----- ------------  ---------------
    28      3.678820   3 H  s                59      3.275410   6 H  s         
    72     -2.215957   7 C  s               129     -1.906801  10 C  s         
    13     -1.513513   1 C  pz               41     -1.273759   4 C  s         
    43      1.052060   4 C  py               12     -1.025850   1 C  py        
    42      0.999810   4 C  px               10     -0.980247   1 C  s         
 
 Vector  102  Occ=0.000000D+00  E= 1.239471D-01
              MO Center= -2.8D+00, -2.5D+00, -2.0D+00, r^2= 3.2D+01
   Bfn.  Coefficient  Atom+Function         Bfn.  Coefficient  Atom+Function  
  ----- ------------  ---------------      ----- ------------  ---------------
    59      2.477745   6 H  s               376      2.211723  30 H  s         
    10     -1.171888   1 C  s               382     -1.132268  31 H  s         
   190     -1.094670  13 Na s                42      1.043576   4 C  px        
    72     -0.875262   7 C  s                43      0.823660   4 C  py        
   191      0.782849  13 Na px              537      0.783637  46 H  s         
 
 Vector  103  Occ=0.000000D+00  E= 1.313196D-01
              MO Center=  4.5D+00,  3.2D-01, -3.6D-01, r^2= 2.3D+01
   Bfn.  Coefficient  Atom+Function         Bfn.  Coefficient  Atom+Function  
  ----- ------------  ---------------      ----- ------------  ---------------
   186      2.936990  13 Na s               469     -2.182094  39 H  s         
    10      1.890856   1 C  s                72     -1.727738   7 C  s         
   190      1.567135  13 Na s                41      1.304778   4 C  s         
   351     -1.218236  28 H  s               537     -1.219467  46 H  s         
   189      1.188414  13 Na pz              444     -1.105898  37 H  s         
 
 Vector  104  Occ=0.000000D+00  E= 1.366365D-01
              MO Center= -2.4D+00, -5.0D-01,  3.5D+00, r^2= 2.4D+01
   Bfn.  Coefficient  Atom+Function         Bfn.  Coefficient  Atom+Function  
  ----- ------------  ---------------      ----- ------------  ---------------
    28      4.828977   3 H  s                59     -4.805811   6 H  s         
    10     -2.394473   1 C  s                13     -1.967647   1 C  pz        
   438     -1.853858  36 H  s                44      1.726076   4 C  pz        
   129      1.644300  10 C  s                42     -1.632613   4 C  px        
    43     -1.327819   4 C  py               11      1.288918   1 C  px        
 
 Vector  105  Occ=0.000000D+00  E= 1.453502D-01
              MO Center= -6.9D-01,  7.1D-01,  2.0D+00, r^2= 3.2D+01
   Bfn.  Coefficient  Atom+Function         Bfn.  Coefficient  Atom+Function  
  ----- ------------  ---------------      ----- ------------  ---------------
   438      5.297964  36 H  s                10     -4.450110   1 C  s         
    53     -3.877351   5 H  s                22      3.629202   2 H  s         
   129      2.368980  10 C  s               289      1.762764  22 H  s         
   444     -1.716444  37 H  s               227     -1.496297  16 H  s         
    42      1.317310   4 C  px              568     -1.220902  49 H  s         
 
 Vector  106  Occ=0.000000D+00  E= 1.527599D-01
              MO Center=  6.2D-02,  1.2D+00,  1.1D+00, r^2= 3.6D+01
   Bfn.  Coefficient  Atom+Function         Bfn.  Coefficient  Atom+Function  
  ----- ------------  ---------------      ----- ------------  ---------------
   438      4.371642  36 H  s                10      4.215929   1 C  s         
    22     -3.702553   2 H  s               129     -3.178921  10 C  s         
    72     -3.061108   7 C  s                53      2.796998   5 H  s         
    13     -2.187546   1 C  pz               28      2.037016   3 H  s         
   186     -1.799798  13 Na s               568     -1.801630  49 H  s         
 
 Vector  107  Occ=0.000000D+00  E= 1.546015D-01
              MO Center=  1.5D+00, -9.8D-02, -1.9D+00, r^2= 3.1D+01
   Bfn.  Coefficient  Atom+Function         Bfn.  Coefficient  Atom+Function  
  ----- ------------  ---------------      ----- ------------  ---------------
   438      7.162996  36 H  s               186     -2.723598  13 Na s         
    10     -2.344994   1 C  s               289     -2.263341  22 H  s         
   283      2.041098  21 H  s               189     -1.842708  13 Na pz        
   568     -1.519854  49 H  s                28      1.461920   3 H  s         
   506     -1.321365  43 H  s               129      1.261854  10 C  s         
 
 Vector  108  Occ=0.000000D+00  E= 1.584704D-01
              MO Center= -3.3D-01, -1.1D+00, -8.9D-01, r^2= 3.4D+01
   Bfn.  Coefficient  Atom+Function         Bfn.  Coefficient  Atom+Function  
  ----- ------------  ---------------      ----- ------------  ---------------
    53      3.428627   5 H  s               289      2.748158  22 H  s         
    22      2.306755   2 H  s                72     -2.207362   7 C  s         
   129     -2.044521  10 C  s               382      1.935534  31 H  s         
   227     -1.850736  16 H  s               283     -1.841777  21 H  s         
   186     -1.812788  13 Na s               258     -1.706230  19 H  s         
 
 Vector  109  Occ=0.000000D+00  E= 1.616029D-01
              MO Center= -5.1D-01,  2.3D-01,  7.7D-01, r^2= 2.7D+01
   Bfn.  Coefficient  Atom+Function         Bfn.  Coefficient  Atom+Function  
  ----- ------------  ---------------      ----- ------------  ---------------
    72      4.931804   7 C  s                10     -4.477975   1 C  s         
   531     -2.681152  45 H  s                59     -2.266392   6 H  s         
    41     -2.127349   4 C  s               129      2.102070  10 C  s         
    74     -2.004781   7 C  py              252      1.904737  18 H  s         
    13      1.809027   1 C  pz               28     -1.807483   3 H  s         
 
 Vector  110  Occ=0.000000D+00  E= 1.630921D-01
              MO Center=  6.9D-01,  4.0D-01,  4.3D-01, r^2= 2.7D+01
   Bfn.  Coefficient  Atom+Function         Bfn.  Coefficient  Atom+Function  
  ----- ------------  ---------------      ----- ------------  ---------------
   186      3.856645  13 Na s               438     -3.677534  36 H  s         
   187     -2.263533  13 Na px               22      2.203935   2 H  s         
   345     -1.765246  27 H  s               252      1.632200  18 H  s         
   189      1.621530  13 Na pz               41     -1.545775   4 C  s         
   500      1.464559  42 H  s               537     -1.326103  46 H  s         
 
 Vector  111  Occ=0.000000D+00  E= 1.669073D-01
              MO Center= -2.8D-01, -1.0D+00,  5.7D-01, r^2= 1.8D+01
   Bfn.  Coefficient  Atom+Function         Bfn.  Coefficient  Atom+Function  
  ----- ------------  ---------------      ----- ------------  ---------------
    72      3.334923   7 C  s               186     -3.333319  13 Na s         
    10     -2.480137   1 C  s                22     -2.422592   2 H  s         
   537      2.002385  46 H  s               289      1.664250  22 H  s         
   438      1.641564  36 H  s               129      1.598411  10 C  s         
    11     -1.469064   1 C  px               59     -1.452868   6 H  s         
 
 Vector  112  Occ=0.000000D+00  E= 1.728541D-01
              MO Center=  7.2D-01, -2.7D-02, -7.5D-01, r^2= 3.2D+01
   Bfn.  Coefficient  Atom+Function         Bfn.  Coefficient  Atom+Function  
  ----- ------------  ---------------      ----- ------------  ---------------
   186      4.941222  13 Na s               438     -4.676819  36 H  s         
    72      3.966853   7 C  s               537     -3.124710  46 H  s         
   187     -2.720095  13 Na px              283      2.499746  21 H  s         
   129      2.418963  10 C  s               289     -2.149692  22 H  s         
   382      1.602375  31 H  s               475     -1.517141  40 H  s         
 
 Vector  113  Occ=0.000000D+00  E= 1.738646D-01
[...]


   alpha    191    192    193    194    195    196    197    198    199    200
    beta    191    192    193    194    195    196    197    198    199    200
 overlap   0.995  0.998  0.987  0.979  0.990  0.980  0.911  0.928  0.998  0.998


   alpha    201    202    203    204    205    206    207    208    209    210
    beta    201    202    203    204    205    206    207    208    209    210
 overlap   0.996  0.986  0.986  0.995  0.980  0.980  0.997  0.998  0.996  0.994


   alpha    211    212    213    214    215    216    217    218    219    220
    beta    211    212    213    214    215    216    217    218    219    220
 overlap   0.998  0.996  0.997  0.992  0.875  0.976  0.879  0.980  0.998  0.984


   alpha    221    222    223    224    225    226    227    228    229    230
    beta    221    222    223    224    225    226    227    228    229    230
 overlap   0.973  0.978  0.993  0.996  0.995  0.998  0.998  0.968  0.970  0.997


   alpha    231    232    233    234    235    236    237    238    239    240
    beta    231    232    233    234    235    236    237    238    239    240
 overlap   0.981  0.986  0.999  0.993  0.998  0.997  0.999  0.999  1.000  0.999


   alpha    241    242    243    244    245    246    247    248    249    250
    beta    241    242    243    244    245    246    247    248    249    250
 overlap   0.999  0.999  0.999  0.999  0.999  0.999  1.000  0.999  0.999  0.997


   alpha    251    252    253    254    255    256    257    258    259    260
    beta    251    252    253    254    255    256    257    258    259    260
 overlap   0.996  1.000  1.000  1.000  0.990  0.981  0.988  0.996  1.000  1.000


   alpha    261    262    263    264    265    266    267    268    269    270
    beta    261    262    263    264    265    266    267    268    269    270
 overlap   1.000  1.000  1.000  0.999  0.998  0.999  1.000  1.000  1.000  1.000


   alpha    271    272    273    274    275    276    277    278    279    280
    beta    271    272    273    274    275    276    277    278    279    280
 overlap   0.999  1.000  1.000  0.981  0.981  1.000  0.998  0.999  0.997  0.998


   alpha    281    282    283    284    285    286    287    288    289    290
    beta    281    282    283    284    285    286    287    288    289    290
 overlap   0.998  0.998  0.999  0.999  1.000  1.000  0.999  0.999  0.998  0.998


   alpha    291    292    293    294    295    296    297    298    299    300
    beta    291    292    293    294    295    296    297    298    299    300
 overlap   0.999  0.999  0.999  1.000  0.999  0.998  0.949  0.949  0.998  0.998


   alpha    301    302    303    304    305    306    307    308    309    310
    beta    301    302    303    304    305    306    307    308    309    310
 overlap   0.998  0.998  0.999  0.999  0.994  0.993  0.992  0.996  0.997  0.998


   alpha    311    312    313    314    315    316    317    318    319    320
    beta    311    312    313    314    315    316    317    318    319    320
 overlap   0.993  0.994  0.981  0.975  0.999  0.992  0.996  0.996  0.975  0.955


   alpha    321    322    323    324    325    326    327    328    329    330
    beta    321    322    323    324    325    326    327    328    329    330
 overlap   0.987  0.980  0.987  0.983  0.994  0.995  0.993  0.996  0.999  0.992


   alpha    331    332    333    334    335    336    337    338    339    340
    beta    331    332    333    334    335    336    337    338    339    340
 overlap   0.994  0.994  0.997  0.992  0.887  0.890  0.998  0.998  0.999  1.000


   alpha    341    342    343    344    345    346    347    348    349    350
    beta    341    342    343    344    345    346    347    348    349    350
 overlap   0.997  0.998  0.994  0.980  0.914  0.925  0.999  0.999  0.998  0.999


   alpha    351    352    353    354    355    356    357    358    359    360
    beta    351    352    353    354    355    356    357    358    359    360
 overlap   1.000  0.999  0.999  0.999  0.999  0.999  0.999  0.999  0.988  0.989


   alpha    361    362    363    364    365    366    367    368    369    370
    beta    361    362    363    364    365    366    367    368    369    370
 overlap   0.999  0.999  0.994  0.995  0.998  0.985  0.985  1.000  1.000  0.998


   alpha    371    372    373    374    375    376    377    378    379    380
    beta    371    372    373    374    375    376    377    378    379    380
 overlap   0.998  0.999  0.998  0.998  0.998  0.999  0.996  0.995  0.997  0.988


   alpha    381    382    383    384    385    386    387    388    389    390
    beta    381    382    383    384    385    386    387    388    389    390
 overlap   0.987  0.962  0.964  0.997  0.998  0.999  0.999  0.999  0.999  0.997


   alpha    391    392    393    394    395    396    397    398    399    400
    beta    391    392    393    394    395    396    397    398    399    400
 overlap   0.995  0.986  0.989  0.982  0.985  0.988  0.990  0.980  0.979  0.978


   alpha    401    402    403    404    405    406    407    408    409    410
    beta    401    402    403    404    405    406    407    408    409    410
 overlap   0.979  0.991  0.993  0.998  0.996  0.992  0.998  0.993  0.997  0.996


   alpha    411    412    413    414    415    416    417    418    419    420
    beta    411    412    413    414    415    416    417    418    419    420
 overlap   0.986  0.985  0.991  0.954  0.958  0.995  0.998  1.000  1.000  1.000


   alpha    421    422    423    424    425    426    427    428    429    430
    beta    421    422    423    424    425    426    427    428    429    430
 overlap   0.999  1.000  0.990  0.990  1.000  1.000  1.000  0.997  0.996  0.999


   alpha    431    432    433    434    435    436    437    438    439    440
    beta    431    432    433    434    435    436    437    438    439    440
 overlap   0.999  1.000  0.997  0.991  0.994  0.998  0.998  0.999  0.999  0.999


   alpha    441    442    443    444    445    446    447    448    449    450
    beta    441    442    443    444    445    446    447    448    449    450
 overlap   0.997  0.995  0.998  0.997  0.999  0.999  0.999  0.997  0.997  1.000


   alpha    451    452    453    454    455    456    457    458    459    460
    beta    451    452    453    454    455    456    457    458    459    460
 overlap   0.999  0.999  0.999  0.999  0.999  0.999  1.000  0.999  0.999  0.999


   alpha    461    462    463    464    465    466    467    468    469    470
    beta    461    462    463    464    465    466    467    468    469    470
 overlap   0.997  0.997  0.998  0.998  0.998  0.999  0.990  0.989  1.000  0.999


   alpha    471    472    473    474    475    476    477    478    479    480
    beta    471    472    473    474    475    476    477    478    479    480
 overlap   0.999  0.998  1.000  0.999  0.999  0.999  0.991  0.958  0.966  0.998


   alpha    481    482    483    484    485    486    487    488    489    490
    beta    481    482    483    484    485    486    487    488    489    490
 overlap   0.998  0.988  0.991  0.999  0.991  0.990  0.996  0.991  0.993  0.993


   alpha    491    492    493    494    495    496    497    498    499    500
    beta    491    492    493    494    495    496    497    498    499    500
 overlap   0.994  0.999  1.000  0.997  0.997  0.998  0.994  0.990  0.990  1.000


   alpha    501    502    503    504    505    506    507    508    509    510
    beta    501    502    503    504    505    506    507    508    509    510
 overlap   0.999  0.996  0.997  1.000  1.000  1.000  1.000  0.999  0.990  0.983


   alpha    511    512    513    514    515    516    517    518    519    520
    beta    511    512    513    514    515    516    517    518    519    520
 overlap   0.994  0.999  0.995  0.998  1.000  0.999  0.996  0.996  0.996  0.995


   alpha    521    522    523    524    525    526    527    528    529    530
    beta    521    522    523    524    525    526    527    528    529    530
 overlap   0.999  1.000  1.000  1.000  0.999  0.999  1.000  1.000  0.977  0.977


   alpha    531    532    533    534    535    536    537    538    539    540
    beta    531    532    533    534    535    536    537    538    539    540
 overlap   1.000  1.000  1.000  1.000  1.000  1.000  1.000  1.000  1.000  1.000


   alpha    541    542    543    544    545    546    547    548    549    550
    beta    541    542    543    544    545    546    547    548    549    550
 overlap   1.000  1.000  1.000  1.000  1.000  1.000  1.000  1.000  1.000  1.000


   alpha    551    552    553    554    555    556    557    558    559    560
    beta    551    552    553    554    555    556    557    558    559    560
 overlap   1.000  1.000  1.000  1.000  0.999  0.998  0.998  1.000  1.000  1.000


   alpha    561    562    563    564    565    566    567    568    569    570
    beta    561    562    563    564    565    566    567    568    569    570
 overlap   1.000  1.000  0.999  0.998  0.999  0.999  1.000  1.000  1.000  1.000


   alpha 
    beta 
 overlap 
 
 ALPHA/BETA PARTNERS

   alpha      1      2      3      4      5      6      8      7      9     10
    beta      1      2      3      4      5      6      7      8      9     10

   alpha     11     12     13     14     15     16     17     18     19     20
    beta     11     12     13     14     15     16     17     18     19     20

   alpha     21     22     23     24     25     26     27     28     29     30
    beta     21     22     23     24     25     26     27     28     29     30

   alpha     31     32     33     34     35     36     38     37     39     40
    beta     31     32     33     34     35     36     37     38     39     40

   alpha     41     42     43     44     45     46     47     48     49     50
    beta     41     42     43     44     45     46     47     48     49     50

   alpha     52     51     53     54     55     56     57     58     59     61
    beta     51     52     53     54     55     56     57     58     59     60

   alpha     60     62     63     64     65     66     67     68     69     70
    beta     61     62     63     64     65     66     67     68     69     70

   alpha     71     72     73     74     75     76     77     78     79     80
    beta     71     72     73     74     75     76     77     78     79     80

   alpha     81     86     82     83     87     88     89     90     84     92
    beta     81     82     83     84     85     86     87     88     89     90

   alpha     91     94     93     95     96
    beta     91     92     93     94     95
 

 THERE ARE   1 UN-PARTNERED ALPHA ORBITALS :  85
 
                       Alpha Orbitals without Beta Partners
                       ------------------------------------
 
 Vector   85   
              MO Center=  4.0D-02, -1.0D+00,  8.8D-01, r^2= 8.5D+00
   Bfn.  Coefficient  Atom+Function         Bfn.  Coefficient  Atom+Function  
  ----- ------------  ---------------      ----- ------------  ---------------
   162      0.352169  12 O  pz              166      0.241177  12 O  pz        
   161      0.233427  12 O  py              104      0.187130   9 O  py        
   234      0.167993  17 O  py              165      0.161277  12 O  py        
 
              ==================================================
                Performing Singular Value Decomposition (SVD)   
              to diagonalize and maximize the alpha/beta overlap
                     See J. Chem. Phys. (1967) 47, 1936.        

              NOTE: The vector numbering of the SVD transformed 
              orbitals is different from the original orbitals. 
              ==================================================

 
          Alpha Orb. w/o Beta Partners (after maxim. alpha/beta overlap)
          --------------------------------------------------------------
 
 Vector    1   
              MO Center= -8.6D-01, -2.7D-01,  1.2D+00, r^2= 6.4D+00
   Bfn.  Coefficient  Atom+Function         Bfn.  Coefficient  Atom+Function  
  ----- ------------  ---------------      ----- ------------  ---------------
   104      0.198699   9 O  py              143      0.196597  11 O  pz        
   162      0.196869  12 O  pz               36      0.183575   4 C  pz        
    10      0.176229   1 C  s                85      0.161741   8 O  py        
   161      0.162360  12 O  py               86     -0.155437   8 O  pz        
   103      0.152759   9 O  px        
 

   SVD maximized alpha - beta orbital overlaps 
   ------------------------------------------- 


   alpha      1      2      3      4      5      6      7      8      9     10
    beta      1      2      3      4      5      6      7      8      9     10
 overlap   1.000  1.000  1.000  1.000  1.000  1.000  1.000  1.000  1.000  1.000


   alpha     11     12     13     14     15     16     17     18     19     20
    beta     11     12     13     14     15     16     17     18     19     20
 overlap   1.000  1.000  1.000  1.000  1.000  1.000  1.000  1.000  1.000  1.000


   alpha     21     22     23     24     25     26     27     28     29     30
    beta     21     22     23     24     25     26     27     28     29     30
 overlap   1.000  1.000  1.000  1.000  1.000  1.000  1.000  1.000  1.000  1.000


   alpha     31     32     33     34     35     36     37     38     39     40
    beta     31     32     33     34     35     36     37     38     39     40
 overlap   1.000  1.000  1.000  1.000  1.000  1.000  1.000  1.000  1.000  1.000


   alpha     41     42     43     44     45     46     47     48     49     50
    beta     41     42     43     44     45     46     47     48     49     50
 overlap   1.000  1.000  1.000  1.000  1.000  1.000  1.000  1.000  1.000  1.000


   alpha     51     52     53     54     55     56     57     58     59     60
    beta     51     52     53     54     55     56     57     58     59     60
 overlap   1.000  1.000  1.000  1.000  1.000  1.000  1.000  1.000  1.000  1.000


   alpha     61     62     63     64     65     66     67     68     69     70
    beta     61     62     63     64     65     66     67     68     69     70
 overlap   1.000  1.000  1.000  1.000  1.000  1.000  1.000  1.000  1.000  1.000


   alpha     71     72     73     74     75     76     77     78     79     80
    beta     71     72     73     74     75     76     77     78     79     80
 overlap   1.000  1.000  1.000  1.000  1.000  1.000  1.000  1.000  1.000  1.000


   alpha     81     82     83     84     85     86     87     88     89     90
    beta     81     82     83     84     85     86     87     88     89     90
 overlap   1.000  1.000  1.000  1.000  1.000  1.000  1.000  1.000  1.000  1.000


   alpha     91     92     93     94     95     96
    beta     91     92     93     94     95     96
 overlap   1.000  1.000  1.000  1.000  0.999  0.000
 

     --------------------------
     Expectation value of S2:  
     --------------------------
      <S2> =      0.7524 (Exact =     0.7500)
 

 center of mass
 --------------
 x =   0.02996749 y =   0.01803275 z =  -0.01157411

 moments of inertia (a.u.)
 ------------------
        9965.562336221636        -758.034321320274         203.664260247838
        -758.034321320274        8229.730100505625        -279.301471725622
         203.664260247838        -279.301471725622       10344.243536422540
 
     Multipole analysis of the density
     ---------------------------------
 
     L   x y z        total         alpha         beta         nuclear
     -   - - -        -----         -----         ----         -------
     0   0 0 0     -0.000000    -96.000000    -95.000000    191.000000
 
     1   1 0 0     -1.850469     -0.130689     -1.719780      0.000000
     1   0 1 0     -0.696093     -0.095836     -0.600257      0.000000
     1   0 0 1      2.504179      0.130316      2.373863     -0.000000
 
     2   2 0 0    -98.390587  -1228.984990  -1221.882553   2352.476956
     2   1 1 0      6.988141   -204.930408   -205.956838    417.875387
     2   1 0 1     -7.174720     42.462166     38.523225    -88.160111
     2   0 2 0   -131.150169  -1710.329210  -1696.327061   3275.506103
     2   0 1 1      4.587818    -84.790497    -86.259695    175.638009
     2   0 0 2   -105.848033  -1129.118600  -1119.324664   2142.595231
 

 Task  times  cpu:     1580.5s     wall:     1525.5s
 
 
                                NWChem Input Module
                                -------------------
 
 
 Summary of allocated global arrays
-----------------------------------
  No active global arrays



                         GA Statistics for process    0
                         ------------------------------

       create   destroy   get      put      acc     scatter   gather  read&inc
calls: 1241     1241     5.64e+05 1.43e+04 3.01e+05    0        0     3274     
number of processes/call 1.23e+00 5.04e+00 1.12e+00 0.00e+00 0.00e+00
bytes total:             2.18e+09 5.56e+08 7.48e+08 0.00e+00 0.00e+00 2.62e+04
bytes remote:            2.08e+09 5.32e+08 7.07e+08 0.00e+00 0.00e+00 0.00e+00
Max memory consumed for GA by this process: 2528736 bytes
 
MA_summarize_allocated_blocks: starting scan ...
MA_summarize_allocated_blocks: scan completed: 0 heap blocks, 0 stack blocks
MA usage statistics:

	allocation statistics:
					      heap	     stack
					      ----	     -----
	current number of blocks	         0	         0
	maximum number of blocks	        19	        51
	current total bytes		         0	         0
	maximum total bytes		    453040	  25635960
	maximum total K-bytes		       454	     25636
	maximum total M-bytes		         1	        26
 
 
                                     CITATION
                                     --------
                Please cite the following reference when publishing
                           results obtained with NWChem:
 
                 M. Valiev, E.J. Bylaska, N. Govind, K. Kowalski,
              T.P. Straatsma, H.J.J. van Dam, D. Wang, J. Nieplocha,
                        E. Apra, T.L. Windus, W.A. de Jong
                 "NWChem: a comprehensive and scalable open-source
                  solution for large scale molecular simulations"
                      Comput. Phys. Commun. 181, 1477 (2010)
                           doi:10.1016/j.cpc.2010.04.018
 
                                      AUTHORS
                                      -------
          E. Apra, E. J. Bylaska, W. A. de Jong, N. Govind, K. Kowalski,
       T. P. Straatsma, M. Valiev, H. J. J. van Dam, D. Wang, T. L. Windus,
        J. Hammond, J. Autschbach, K. Bhaskaran-Nair, J. Brabec, K. Lopata,
       S. A. Fischer, S. Krishnamoorthy, W. Ma, M. Klemm, O. Villa, Y. Chen,
    V. Anisimov, F. Aquino, S. Hirata, M. T. Hackler, T. Risthaus, M. Malagoli,
       A. Marenich, A. Otero-de-la-Roza, J. Mullin, P. Nichols, R. Peverati,
     J. Pittner, Y. Zhao, P.-D. Fan, A. Fonari, M. Williamson, R. J. Harrison,
       J. R. Rehr, M. Dupuis, D. Silverstein, D. M. A. Smith, J. Nieplocha,
        V. Tipparaju, M. Krishnan, B. E. Van Kuiken, A. Vazquez-Mayagoitia,
        L. Jensen, M. Swart, Q. Wu, T. Van Voorhis, A. A. Auer, M. Nooijen,
      L. D. Crosby, E. Brown, G. Cisneros, G. I. Fann, H. Fruchtl, J. Garza,
        K. Hirao, R. A. Kendall, J. A. Nichols, K. Tsemekhman, K. Wolinski,
     J. Anchell, D. E. Bernholdt, P. Borowski, T. Clark, D. Clerc, H. Dachsel,
   M. J. O. Deegan, K. Dyall, D. Elwood, E. Glendening, M. Gutowski, A. C. Hess,
         J. Jaffe, B. G. Johnson, J. Ju, R. Kobayashi, R. Kutteh, Z. Lin,
   R. Littlefield, X. Long, B. Meng, T. Nakajima, S. Niu, L. Pollack, M. Rosing,
   K. Glaesemann, G. Sandrone, M. Stave, H. Taylor, G. Thomas, J. H. van Lenthe,
                               A. T. Wong, Z. Zhang.

 Total times  cpu:     1993.7s     wall:     1930.6s
